ITEM: TIMESTEP
0
ITEM: NUMBER OF ATOMS
500
ITEM: BOX BOUNDS pp pp pp
0 18.144
0 18.144
0 18.144
ITEM: ATOMS id type xs ys zs
1 1 0 0 0
2 1 0.1 0.1 0
3 1 0.1 0 0.1
4 1 0 0.1 0.1
5 1 0.2 0 0
8 1 0.2 0.1 0.1
21 1 0 0.2 0
23 1 0.1 0.2 0.1
25 1 0.2 0.2 0
6 1 0.3 0.1 0
7 1 0.3 0 0.1
9 1 0.4 0 0
12 1 0.4 0.1 0.1
27 1 0.3 0.2 0.1
29 1 0.4 0.2 0
10 1 0.5 0.1 0
11 1 0.5 0 0.1
13 1 0.6 0 0
14 1 0.7 0.1 0
15 1 0.7 0 0.1
16 1 0.6 0.1 0.1
31 1 0.5 0.2 0.1
33 1 0.6 0.2 0
35 1 0.7 0.2 0.1
17 1 0.8 0 0
18 1 0.9 0.1 0
19 1 0.9 0 0.1
20 1 0.8 0.1 0.1
37 1 0.8 0.2 0
39 1 0.9 0.2 0.1
22 1 0.1 0.3 0
24 1 0 0.3 0.1
28 1 0.2 0.3 0.1
41 1 0 0.4 0
42 1 0.1 0.4 0.1
43 1 0.2 0.4 0
26 1 0.3 0.3 0
32 1 0.4 0.3 0.1
44 1 0.3 0.4 0.1
45 1 0.4 0.4 0
30 1 0.5 0.3 0
34 1 0.7 0.3 0
36 1 0.6 0.3 0.1
46 1 0.5 0.4 0.1
47 1 0.6 0.4 0
48 1 0.7 0.4 0.1
38 1 0.9 0.3 0
40 1 0.8 0.3 0.1
49 1 0.8 0.4 0
50 1 0.9 0.4 0.1
51 1 0 0 0.2
52 1 0.1 0.1 0.2
53 1 0.1 0 0.3
54 1 0 0.1 0.3
55 1 0.2 0 0.2
58 1 0.2 0.1 0.3
71 1 0 0.2 0.2
73 1 0.1 0.2 0.3
75 1 0.2 0.2 0.2
56 1 0.3 0.1 0.2
57 1 0.3 0 0.3
59 1 0.4 0 0.2
62 1 0.4 0.1 0.3
77 1 0.3 0.2 0.3
79 1 0.4 0.2 0.2
60 1 0.5 0.1 0.2
61 1 0.5 0 0.3
63 1 0.6 0 0.2
64 1 0.7 0.1 0.2
65 1 0.7 0 0.3
66 1 0.6 0.1 0.3
81 1 0.5 0.2 0.3
83 1 0.6 0.2 0.2
85 1 0.7 0.2 0.3
67 1 0.8 0 0.2
68 1 0.9 0.1 0.2
69 1 0.9 0 0.3
70 1 0.8 0.1 0.3
87 1 0.8 0.2 0.2
89 1 0.9 0.2 0.3
72 1 0.1 0.3 0.2
74 1 0 0.3 0.3
78 1 0.2 0.3 0.3
91 1 0 0.4 0.2
92 1 0.1 0.4 0.3
93 1 0.2 0.4 0.2
76 1 0.3 0.3 0.2
82 1 0.4 0.3 0.3
94 1 0.3 0.4 0.3
95 1 0.4 0.4 0.2
80 1 0.5 0.3 0.2
84 1 0.7 0.3 0.2
86 1 0.6 0.3 0.3
96 1 0.5 0.4 0.3
97 1 0.6 0.4 0.2
98 1 0.7 0.4 0.3
88 1 0.9 0.3 0.2
90 1 0.8 0.3 0.3
99 1 0.8 0.4 0.2
100 1 0.9 0.4 0.3
101 1 0 0 0.4
102 1 0.1 0.1 0.4
103 1 0.1 0 0.5
104 1 0 0.1 0.5
105 1 0.2 0 0.4
108 1 0.2 0.1 0.5
121 1 0 0.2 0.4
123 1 0.1 0.2 0.5
125 1 0.2 0.2 0.4
106 1 0.3 0.1 0.4
107 1 0.3 0 0.5
109 1 0.4 0 0.4
112 1 0.4 0.1 0.5
127 1 0.3 0.2 0.5
129 1 0.4 0.2 0.4
110 1 0.5 0.1 0.4
111 1 0.5 0 0.5
113 1 0.6 0 0.4
114 1 0.7 0.1 0.4
115 1 0.7 0 0.5
116 1 0.6 0.1 0.5
131 1 0.5 0.2 0.5
133 1 0.6 0.2 0.4
135 1 0.7 0.2 0.5
117 1 0.8 0 0.4
118 1 0.9 0.1 0.4
119 1 0.9 0 0.5
120 1 0.8 0.1 0.5
137 1 0.8 0.2 0.4
139 1 0.9 0.2 0.5
122 1 0.1 0.3 0.4
124 1 0 0.3 0.5
128 1 0.2 0.3 0.5
141 1 0 0.4 0.4
142 1 0.1 0.4 0.5
143 1 0.2 0.4 0.4
126 1 0.3 0.3 0.4
132 1 0.4 0.3 0.5
144 1 0.3 0.4 0.5
145 1 0.4 0.4 0.4
130 1 0.5 0.3 0.4
134 1 0.7 0.3 0.4
136 1 0.6 0.3 0.5
146 1 0.5 0.4 0.5
147 1 0.6 0.4 0.4
148 1 0.7 0.4 0.5
138 1 0.9 0.3 0.4
140 1 0.8 0.3 0.5
149 1 0.8 0.4 0.4
150 1 0.9 0.4 0.5
151 1 0 0 0.6
152 1 0.1 0.1 0.6
153 1 0.1 0 0.7
154 1 0 0.1 0.7
155 1 0.2 0 0.6
158 1 0.2 0.1 0.7
171 1 0 0.2 0.6
173 1 0.1 0.2 0.7
175 1 0.2 0.2 0.6
156 1 0.3 0.1 0.6
157 1 0.3 0 0.7
159 1 0.4 0 0.6
162 1 0.4 0.1 0.7
177 1 0.3 0.2 0.7
179 1 0.4 0.2 0.6
160 1 0.5 0.1 0.6
161 1 0.5 0 0.7
163 1 0.6 0 0.6
164 1 0.7 0.1 0.6
165 1 0.7 0 0.7
166 1 0.6 0.1 0.7
181 1 0.5 0.2 0.7
183 1 0.6 0.2 0.6
185 1 0.7 0.2 0.7
167 1 0.8 0 0.6
168 1 0.9 0.1 0.6
169 1 0.9 0 0.7
170 1 0.8 0.1 0.7
187 1 0.8 0.2 0.6
189 1 0.9 0.2 0.7
172 1 0.1 0.3 0.6
174 1 0 0.3 0.7
178 1 0.2 0.3 0.7
191 1 0 0.4 0.6
192 1 0.1 0.4 0.7
193 1 0.2 0.4 0.6
176 1 0.3 0.3 0.6
182 1 0.4 0.3 0.7
194 1 0.3 0.4 0.7
195 1 0.4 0.4 0.6
180 1 0.5 0.3 0.6
184 1 0.7 0.3 0.6
186 1 0.6 0.3 0.7
196 1 0.5 0.4 0.7
197 1 0.6 0.4 0.6
198 1 0.7 0.4 0.7
188 1 0.9 0.3 0.6
190 1 0.8 0.3 0.7
199 1 0.8 0.4 0.6
200 1 0.9 0.4 0.7
201 1 0 0 0.8
202 1 0.1 0.1 0.8
203 1 0.1 0 0.9
204 1 0 0.1 0.9
205 1 0.2 0 0.8
208 1 0.2 0.1 0.9
221 1 0 0.2 0.8
223 1 0.1 0.2 0.9
225 1 0.2 0.2 0.8
206 1 0.3 0.1 0.8
207 1 0.3 0 0.9
209 1 0.4 0 0.8
212 1 0.4 0.1 0.9
227 1 0.3 0.2 0.9
229 1 0.4 0.2 0.8
210 1 0.5 0.1 0.8
211 1 0.5 0 0.9
213 1 0.6 0 0.8
214 1 0.7 0.1 0.8
215 1 0.7 0 0.9
216 1 0.6 0.1 0.9
231 1 0.5 0.2 0.9
233 1 0.6 0.2 0.8
235 1 0.7 0.2 0.9
217 1 0.8 0 0.8
218 1 0.9 0.1 0.8
219 1 0.9 0 0.9
220 1 0.8 0.1 0.9
237 1 0.8 0.2 0.8
239 1 0.9 0.2 0.9
222 1 0.1 0.3 0.8
224 1 0 0.3 0.9
228 1 0.2 0.3 0.9
241 1 0 0.4 0.8
242 1 0.1 0.4 0.9
243 1 0.2 0.4 0.8
226 1 0.3 0.3 0.8
232 1 0.4 0.3 0.9
244 1 0.3 0.4 0.9
245 1 0.4 0.4 0.8
230 1 0.5 0.3 0.8
234 1 0.7 0.3 0.8
236 1 0.6 0.3 0.9
246 1 0.5 0.4 0.9
247 1 0.6 0.4 0.8
248 1 0.7 0.4 0.9
238 1 0.9 0.3 0.8
240 1 0.8 0.3 0.9
249 1 0.8 0.4 0.8
250 1 0.9 0.4 0.9
251 1 0.1 0.5 0
252 1 0 0.5 0.1
254 1 0.2 0.5 0.1
261 1 0 0.6 0
262 1 0.1 0.7 0
263 1 0.1 0.6 0.1
264 1 0 0.7 0.1
265 1 0.2 0.6 0
268 1 0.2 0.7 0.1
253 1 0.3 0.5 0
256 1 0.4 0.5 0.1
266 1 0.3 0.7 0
267 1 0.3 0.6 0.1
269 1 0.4 0.6 0
272 1 0.4 0.7 0.1
255 1 0.5 0.5 0
257 1 0.7 0.5 0
258 1 0.6 0.5 0.1
270 1 0.5 0.7 0
271 1 0.5 0.6 0.1
273 1 0.6 0.6 0
274 1 0.7 0.7 0
275 1 0.7 0.6 0.1
276 1 0.6 0.7 0.1
259 1 0.9 0.5 0
260 1 0.8 0.5 0.1
277 1 0.8 0.6 0
278 1 0.9 0.7 0
279 1 0.9 0.6 0.1
280 1 0.8 0.7 0.1
281 1 0 0.8 0
282 1 0.1 0.9 0
283 1 0.1 0.8 0.1
284 1 0 0.9 0.1
285 1 0.2 0.8 0
288 1 0.2 0.9 0.1
286 1 0.3 0.9 0
287 1 0.3 0.8 0.1
289 1 0.4 0.8 0
292 1 0.4 0.9 0.1
290 1 0.5 0.9 0
291 1 0.5 0.8 0.1
293 1 0.6 0.8 0
294 1 0.7 0.9 0
295 1 0.7 0.8 0.1
296 1 0.6 0.9 0.1
297 1 0.8 0.8 0
298 1 0.9 0.9 0
299 1 0.9 0.8 0.1
300 1 0.8 0.9 0.1
301 1 0.1 0.5 0.2
302 1 0 0.5 0.3
304 1 0.2 0.5 0.3
311 1 0 0.6 0.2
312 1 0.1 0.7 0.2
313 1 0.1 0.6 0.3
314 1 0 0.7 0.3
315 1 0.2 0.6 0.2
318 1 0.2 0.7 0.3
303 1 0.3 0.5 0.2
306 1 0.4 0.5 0.3
316 1 0.3 0.7 0.2
317 1 0.3 0.6 0.3
319 1 0.4 0.6 0.2
322 1 0.4 0.7 0.3
305 1 0.5 0.5 0.2
307 1 0.7 0.5 0.2
308 1 0.6 0.5 0.3
320 1 0.5 0.7 0.2
321 1 0.5 0.6 0.3
323 1 0.6 0.6 0.2
324 1 0.7 0.7 0.2
325 1 0.7 0.6 0.3
326 1 0.6 0.7 0.3
309 1 0.9 0.5 0.2
310 1 0.8 0.5 0.3
327 1 0.8 0.6 0.2
328 1 0.9 0.7 0.2
329 1 0.9 0.6 0.3
330 1 0.8 0.7 0.3
331 1 0 0.8 0.2
332 1 0.1 0.9 0.2
333 1 0.1 0.8 0.3
334 1 0 0.9 0.3
335 1 0.2 0.8 0.2
338 1 0.2 0.9 0.3
336 1 0.3 0.9 0.2
337 1 0.3 0.8 0.3
339 1 0.4 0.8 0.2
342 1 0.4 0.9 0.3
340 1 0.5 0.9 0.2
341 1 0.5 0.8 0.3
343 1 0.6 0.8 0.2
344 1 0.7 0.9 0.2
345 1 0.7 0.8 0.3
346 1 0.6 0.9 0.3
347 1 0.8 0.8 0.2
348 1 0.9 0.9 0.2
349 1 0.9 0.8 0.3
350 1 0.8 0.9 0.3
351 1 0.1 0.5 0.4
352 1 0 0.5 0.5
354 1 0.2 0.5 0.5
361 1 0 0.6 0.4
362 1 0.1 0.7 0.4
363 1 0.1 0.6 0.5
364 1 0 0.7 0.5
365 1 0.2 0.6 0.4
368 1 0.2 0.7 0.5
353 1 0.3 0.5 0.4
356 1 0.4 0.5 0.5
366 1 0.3 0.7 0.4
367 1 0.3 0.6 0.5
369 1 0.4 0.6 0.4
372 1 0.4 0.7 0.5
355 1 0.5 0.5 0.4
357 1 0.7 0.5 0.4
358 1 0.6 0.5 0.5
370 1 0.5 0.7 0.4
371 1 0.5 0.6 0.5
373 1 0.6 0.6 0.4
374 1 0.7 0.7 0.4
375 1 0.7 0.6 0.5
376 1 0.6 0.7 0.5
359 1 0.9 0.5 0.4
360 1 0.8 0.5 0.5
377 1 0.8 0.6 0.4
378 1 0.9 0.7 0.4
379 1 0.9 0.6 0.5
380 1 0.8 0.7 0.5
381 1 0 0.8 0.4
382 1 0.1 0.9 0.4
383 1 0.1 0.8 0.5
384 1 0 0.9 0.5
385 1 0.2 0.8 0.4
388 1 0.2 0.9 0.5
386 1 0.3 0.9 0.4
387 1 0.3 0.8 0.5
389 1 0.4 0.8 0.4
392 1 0.4 0.9 0.5
390 1 0.5 0.9 0.4
391 1 0.5 0.8 0.5
393 1 0.6 0.8 0.4
394 1 0.7 0.9 0.4
395 1 0.7 0.8 0.5
396 1 0.6 0.9 0.5
397 1 0.8 0.8 0.4
398 1 0.9 0.9 0.4
399 1 0.9 0.8 0.5
400 1 0.8 0.9 0.5
401 1 0.1 0.5 0.6
402 1 0 0.5 0.7
404 1 0.2 0.5 0.7
411 1 0 0.6 0.6
412 1 0.1 0.7 0.6
413 1 0.1 0.6 0.7
414 1 0 0.7 0.7
415 1 0.2 0.6 0.6
418 1 0.2 0.7 0.7
403 1 0.3 0.5 0.6
406 1 0.4 0.5 0.7
416 1 0.3 0.7 0.6
417 1 0.3 0.6 0.7
419 1 0.4 0.6 0.6
422 1 0.4 0.7 0.7
405 1 0.5 0.5 0.6
407 1 0.7 0.5 0.6
408 1 0.6 0.5 0.7
420 1 0.5 0.7 0.6
421 1 0.5 0.6 0.7
423 1 0.6 0.6 0.6
424 1 0.7 0.7 0.6
425 1 0.7 0.6 0.7
426 1 0.6 0.7 0.7
409 1 0.9 0.5 0.6
410 1 0.8 0.5 0.7
427 1 0.8 0.6 0.6
428 1 0.9 0.7 0.6
429 1 0.9 0.6 0.7
430 1 0.8 0.7 0.7
431 1 0 0.8 0.6
432 1 0.1 0.9 0.6
433 1 0.1 0.8 0.7
434 1 0 0.9 0.7
435 1 0.2 0.8 0.6
438 1 0.2 0.9 0.7
436 1 0.3 0.9 0.6
437 1 0.3 0.8 0.7
439 1 0.4 0.8 0.6
442 1 0.4 0.9 0.7
440 1 0.5 0.9 0.6
441 1 0.5 0.8 0.7
443 1 0.6 0.8 0.6
444 1 0.7 0.9 0.6
445 1 0.7 0.8 0.7
446 1 0.6 0.9 0.7
447 1 0.8 0.8 0.6
448 1 0.9 0.9 0.6
449 1 0.9 0.8 0.7
450 1 0.8 0.9 0.7
451 1 0.1 0.5 0.8
452 1 0 0.5 0.9
454 1 0.2 0.5 0.9
461 1 0 0.6 0.8
462 1 0.1 0.7 0.8
463 1 0.1 0.6 0.9
464 1 0 0.7 0.9
465 1 0.2 0.6 0.8
468 1 0.2 0.7 0.9
453 1 0.3 0.5 0.8
456 1 0.4 0.5 0.9
466 1 0.3 0.7 0.8
467 1 0.3 0.6 0.9
469 1 0.4 0.6 0.8
472 1 0.4 0.7 0.9
455 1 0.5 0.5 0.8
457 1 0.7 0.5 0.8
458 1 0.6 0.5 0.9
470 1 0.5 0.7 0.8
471 1 0.5 0.6 0.9
473 1 0.6 0.6 0.8
474 1 0.7 0.7 0.8
475 1 0.7 0.6 0.9
476 1 0.6 0.7 0.9
459 1 0.9 0.5 0.8
460 1 0.8 0.5 0.9
477 1 0.8 0.6 0.8
478 1 0.9 0.7 0.8
479 1 0.9 0.6 0.9
480 1 0.8 0.7 0.9
481 1 0 0.8 0.8
482 1 0.1 0.9 0.8
483 1 0.1 0.8 0.9
484 1 0 0.9 0.9
485 1 0.2 0.8 0.8
488 1 0.2 0.9 0.9
486 1 0.3 0.9 0.8
487 1 0.3 0.8 0.9
489 1 0.4 0.8 0.8
492 1 0.4 0.9 0.9
490 1 0.5 0.9 0.8
491 1 0.5 0.8 0.9
493 1 0.6 0.8 0.8
494 1 0.7 0.9 0.8
495 1 0.7 0.8 0.9
496 1 0.6 0.9 0.9
497 1 0.8 0.8 0.8
498 1 0.9 0.9 0.8
499 1 0.9 0.8 0.9
500 1 0.8 0.9 0.9
