ITEM: TIMESTEP
10000
ITEM: NUMBER OF ATOMS
500
ITEM: BOX BOUNDS pp pp pp
0 18.144
0 18.144
0 18.144
ITEM: ATOMS id type xs ys zs
1 1 0.000616741 0.00710059 0.00227291
2 1 0.099018 0.0996102 -0.000398653
3 1 0.0976029 0.0020271 0.0998244
4 1 0.000339652 0.106495 0.104423
5 1 0.203863 -0.00245763 -0.00566679
8 1 0.200786 0.103357 0.0955747
21 1 -0.00113607 0.201787 -0.0118223
23 1 0.0964529 0.207519 0.0990435
25 1 0.195343 0.197758 -0.0017321
6 1 0.305716 0.105524 0.000273361
7 1 0.30502 0.0070161 0.0987276
9 1 0.398838 -0.000460337 0.00281108
12 1 0.405989 0.0950281 0.102416
27 1 0.303691 0.208245 0.104961
29 1 0.400271 0.204483 0.00470644
10 1 0.507441 0.0972973 -0.00453597
11 1 0.499433 -0.00160648 0.108627
13 1 0.595727 -0.00016636 0.00406757
14 1 0.691964 0.0980718 -0.00247437
15 1 0.695506 -0.00293057 0.103328
16 1 0.603948 0.0999468 0.103272
31 1 0.501154 0.19448 0.0989322
33 1 0.595481 0.203108 -0.00453661
35 1 0.701798 0.194273 0.0944073
17 1 0.794734 0.000559143 0.000332029
18 1 0.902696 0.104179 -0.00195978
19 1 0.906191 0.00767055 0.0917773
20 1 0.801778 0.104948 0.10446
37 1 0.801387 0.19127 -0.00218219
39 1 0.899763 0.198417 0.10297
22 1 0.099153 0.303729 -0.0094095
24 1 -0.00136447 0.300734 0.0967606
28 1 0.192271 0.30556 0.103953
41 1 -0.00371215 0.398161 0.000930136
42 1 0.0955822 0.397764 0.107222
43 1 0.199115 0.399924 0.00340254
26 1 0.294171 0.296369 0.0032577
32 1 0.398196 0.291546 0.100656
44 1 0.29918 0.3918 0.102523
45 1 0.405391 0.38998 -0.00129298
30 1 0.500332 0.292759 -0.00218052
34 1 0.703355 0.294199 0.000443019
36 1 0.606689 0.293595 0.0988484
46 1 0.497899 0.389118 0.0968038
47 1 0.601616 0.382691 -0.00187956
48 1 0.698952 0.394326 0.0996024
38 1 0.899871 0.296147 0.00302454
40 1 0.801001 0.296501 0.104104
49 1 0.796376 0.398762 5.22851e-05
50 1 0.897366 0.400033 0.0952504
51 1 -0.00297424 0.00661795 0.200667
52 1 0.0989793 0.10031 0.202916
53 1 0.104692 0.000906275 0.295458
54 1 -0.00207559 0.101822 0.301035
55 1 0.199351 -0.000636204 0.195112
58 1 0.207819 0.0985837 0.298318
71 1 -0.00207144 0.207981 0.211412
73 1 0.0997754 0.199521 0.30313
75 1 0.19843 0.197841 0.198935
56 1 0.307537 0.105586 0.196702
57 1 0.29294 -0.00131501 0.300407
59 1 0.397923 -0.000853432 0.202788
62 1 0.405252 0.103563 0.305159
77 1 0.300788 0.202407 0.310778
79 1 0.407925 0.200334 0.205436
60 1 0.501077 0.0993144 0.211839
61 1 0.500656 -0.0082177 0.30199
63 1 0.600624 -0.00983225 0.201294
64 1 0.701921 0.0921942 0.204258
65 1 0.697539 -0.00719791 0.306297
66 1 0.593925 0.0965953 0.306102
81 1 0.502483 0.201148 0.30797
83 1 0.599743 0.192058 0.204515
85 1 0.696476 0.202487 0.301463
67 1 0.803752 -0.00407153 0.191244
68 1 0.896584 0.109594 0.204275
69 1 0.897352 0.000465252 0.298955
70 1 0.796886 0.102326 0.302172
87 1 0.803798 0.201346 0.201689
89 1 0.895529 0.203671 0.305121
72 1 0.0997768 0.304061 0.203856
74 1 0.00362939 0.302325 0.306243
78 1 0.20631 0.303273 0.299901
91 1 -0.00136091 0.401173 0.199889
92 1 0.10316 0.398946 0.302566
93 1 0.203948 0.40122 0.202624
76 1 0.300912 0.292934 0.205744
82 1 0.399969 0.298974 0.301465
94 1 0.308943 0.404857 0.292479
95 1 0.402416 0.387821 0.191148
80 1 0.500976 0.300212 0.201598
84 1 0.69762 0.296351 0.197722
86 1 0.604918 0.303414 0.299487
96 1 0.496975 0.403868 0.295509
97 1 0.603333 0.403649 0.199325
98 1 0.698832 0.399907 0.29591
88 1 0.900319 0.298169 0.200597
90 1 0.793205 0.300313 0.300462
99 1 0.796879 0.403615 0.199596
100 1 0.896425 0.405923 0.298166
101 1 0.00206553 0.00449456 0.392923
102 1 0.102357 0.0979305 0.396159
103 1 0.102494 0.00052507 0.498544
104 1 -0.00258973 0.104415 0.502034
105 1 0.19884 -0.000956589 0.405112
108 1 0.201241 0.106402 0.495515
121 1 -0.00351591 0.19599 0.404502
123 1 0.100821 0.207732 0.494641
125 1 0.201772 0.20762 0.401636
106 1 0.304656 0.0950475 0.404528
107 1 0.299414 -0.00538442 0.503031
109 1 0.397729 0.00116114 0.401729
112 1 0.398503 0.100589 0.500092
127 1 0.303507 0.201233 0.498131
129 1 0.403629 0.196015 0.409786
110 1 0.507521 0.10818 0.404064
111 1 0.495146 0.000145187 0.498826
113 1 0.597452 -0.00561539 0.405526
114 1 0.698057 0.0964863 0.400063
115 1 0.702204 -0.00657011 0.500163
116 1 0.605572 0.0948189 0.49855
131 1 0.505854 0.203546 0.500762
133 1 0.606433 0.208165 0.407677
135 1 0.698978 0.20539 0.50063
117 1 0.799035 -0.00226444 0.400065
118 1 0.89577 0.098023 0.395759
119 1 0.907896 0.000170114 0.497626
120 1 0.797519 0.100864 0.500757
137 1 0.794055 0.196794 0.400639
139 1 0.891973 0.2063 0.498009
122 1 0.0996914 0.30683 0.405595
124 1 -0.000662187 0.303765 0.502358
128 1 0.209008 0.305106 0.493212
141 1 0.00344354 0.405956 0.404648
142 1 0.0983239 0.40722 0.507031
143 1 0.198784 0.406648 0.395638
126 1 0.304827 0.306791 0.400544
132 1 0.402814 0.297428 0.502137
144 1 0.299708 0.402984 0.494151
145 1 0.403172 0.40456 0.396709
130 1 0.501854 0.303234 0.395662
134 1 0.701411 0.307452 0.396563
136 1 0.603964 0.303627 0.500745
146 1 0.502382 0.399533 0.49965
147 1 0.596531 0.402888 0.397355
148 1 0.696902 0.401559 0.503254
138 1 0.900425 0.305163 0.398208
140 1 0.791483 0.302306 0.489276
149 1 0.80146 0.399063 0.401475
150 1 0.900591 0.403571 0.499546
151 1 0.0101187 -0.00336334 0.595695
152 1 0.103103 0.106629 0.598913
153 1 0.102623 0.00422231 0.700202
154 1 -0.00212779 0.101125 0.691084
155 1 0.193966 0.0041737 0.601444
158 1 0.211844 0.103184 0.704385
171 1 -0.000319982 0.199588 0.597559
173 1 0.106357 0.194536 0.699868
175 1 0.199797 0.205813 0.598988
156 1 0.304405 0.102583 0.594968
157 1 0.301881 -0.00687378 0.698504
159 1 0.400061 -0.00260581 0.600548
162 1 0.396484 0.0973997 0.706889
177 1 0.305413 0.20263 0.695608
179 1 0.397952 0.204838 0.601316
160 1 0.505531 0.0923187 0.597446
161 1 0.502616 0.000126577 0.703436
163 1 0.604807 0.00154194 0.601911
164 1 0.702803 0.102839 0.605887
165 1 0.708197 0.00431124 0.702452
166 1 0.599884 0.101589 0.699389
181 1 0.499591 0.191042 0.700612
183 1 0.599323 0.204316 0.604332
185 1 0.707262 0.196908 0.699596
167 1 0.805453 -0.00194923 0.601977
168 1 0.900074 0.0933763 0.593439
169 1 0.904854 -0.0021075 0.699934
170 1 0.801859 0.0949346 0.699922
187 1 0.804637 0.203974 0.59971
189 1 0.904214 0.194875 0.697878
172 1 0.0981128 0.298098 0.59762
174 1 0.00120724 0.29832 0.698119
178 1 0.195576 0.296672 0.6966
191 1 -0.00200962 0.39577 0.60066
192 1 0.0923962 0.402813 0.69927
193 1 0.193982 0.401879 0.598859
176 1 0.293519 0.309476 0.602443
182 1 0.403481 0.300849 0.696455
194 1 0.307338 0.397907 0.700995
195 1 0.403228 0.403836 0.597264
180 1 0.508425 0.302081 0.595063
184 1 0.700639 0.304302 0.601747
186 1 0.598273 0.306489 0.701817
196 1 0.508358 0.401542 0.700787
197 1 0.601759 0.410516 0.605539
198 1 0.700663 0.408872 0.697362
188 1 0.90282 0.302938 0.598925
190 1 0.795759 0.296822 0.700832
199 1 0.797006 0.395018 0.600836
200 1 0.894513 0.397547 0.695629
201 1 0.00839309 0.00367979 0.793361
202 1 0.104876 0.100903 0.797368
203 1 0.105633 -0.00341352 0.894224
204 1 0.0107804 0.0978903 0.897383
205 1 0.201421 -0.00797829 0.798519
208 1 0.20221 0.101119 0.897165
221 1 0.000906135 0.196729 0.801096
223 1 0.104194 0.197201 0.900097
225 1 0.198242 0.205093 0.799471
206 1 0.301021 0.102512 0.802848
207 1 0.300147 0.00221413 0.900343
209 1 0.403441 -7.37503e-06 0.803807
212 1 0.399587 0.10804 0.89757
227 1 0.291138 0.203736 0.894479
229 1 0.392688 0.19697 0.795434
210 1 0.494809 0.104265 0.801371
211 1 0.499381 -0.00224929 0.901351
213 1 0.598562 -0.00193379 0.798515
214 1 0.707847 0.0998621 0.798841
215 1 0.6934 0.0102463 0.898597
216 1 0.595566 0.0990226 0.899051
231 1 0.499055 0.20005 0.890531
233 1 0.603487 0.194735 0.795671
235 1 0.711182 0.201665 0.892697
217 1 0.803194 -0.00918524 0.803153
218 1 0.899194 0.0947702 0.801019
219 1 0.903951 -0.00120893 0.90021
220 1 0.802795 0.0949849 0.896595
237 1 0.800008 0.204729 0.795392
239 1 0.899694 0.200732 0.896448
222 1 0.0951855 0.299141 0.800314
224 1 -0.00588573 0.299171 0.889705
228 1 0.208187 0.30559 0.895597
241 1 2.35404e-05 0.400767 0.801611
242 1 0.0977559 0.396361 0.895893
243 1 0.199673 0.399761 0.800746
226 1 0.305677 0.302903 0.79498
232 1 0.402785 0.293123 0.896471
244 1 0.306857 0.397969 0.903707
245 1 0.406066 0.405502 0.796356
230 1 0.497783 0.29599 0.790703
234 1 0.697717 0.304415 0.798413
236 1 0.598986 0.292067 0.891882
246 1 0.499895 0.392725 0.890913
247 1 0.601241 0.394862 0.803221
248 1 0.695351 0.401054 0.906345
238 1 0.895097 0.302143 0.801735
240 1 0.804365 0.30349 0.896836
249 1 0.795864 0.402081 0.792568
250 1 0.900118 0.396638 0.901783
251 1 0.100581 0.495957 0.000881935
252 1 0.00175449 0.502841 0.102624
254 1 0.204439 0.497221 0.102143
261 1 -0.000374307 0.600318 -0.000387984
262 1 0.101674 0.696512 0.00450516
263 1 0.109213 0.597051 0.0987516
264 1 0.0038014 0.702972 0.0905684
265 1 0.21027 0.589744 -0.00295936
268 1 0.202252 0.700207 0.100608
253 1 0.305031 0.489895 0.00399905
256 1 0.399965 0.491665 0.0941024
266 1 0.297204 0.701284 0.00878002
267 1 0.301038 0.599428 0.106046
269 1 0.393382 0.599118 0.00420424
272 1 0.400731 0.697263 0.0953579
255 1 0.494347 0.494689 -0.000589865
257 1 0.694412 0.497284 0.00281179
258 1 0.597728 0.496861 0.0979325
270 1 0.492321 0.70212 -0.0068554
271 1 0.496226 0.598888 0.101862
273 1 0.600812 0.598875 0.00916953
274 1 0.705504 0.702061 -0.00672071
275 1 0.696061 0.606275 0.0964781
276 1 0.595435 0.700736 0.102422
259 1 0.902193 0.497836 -0.00074556
260 1 0.79226 0.502561 0.100009
277 1 0.800881 0.596701 -0.000659481
278 1 0.907073 0.694502 -0.00206953
279 1 0.893332 0.603916 0.0952675
280 1 0.794826 0.69865 0.0921181
281 1 0.00328523 0.811711 0.00739111
282 1 0.100267 0.907657 -0.00103099
283 1 0.101936 0.802923 0.0952707
284 1 0.00106842 0.900933 0.103666
285 1 0.200051 0.805861 0.00519349
288 1 0.193223 0.903546 0.102077
286 1 0.299554 0.902151 0.0057885
287 1 0.301352 0.800178 0.106398
289 1 0.397244 0.798522 -0.00212657
292 1 0.399478 0.906002 0.0946236
290 1 0.495609 0.901941 0.000481924
291 1 0.488984 0.80413 0.0997357
293 1 0.592667 0.80198 0.000441616
294 1 0.699851 0.899887 -0.0078317
295 1 0.693578 0.798307 0.0934562
296 1 0.597664 0.892432 0.0938798
297 1 0.803828 0.794677 -0.00740266
298 1 0.899326 0.907246 -0.00151199
299 1 0.895141 0.799139 0.0914766
300 1 0.800024 0.902156 0.0958898
301 1 0.102249 0.505193 0.202373
302 1 -0.00374191 0.512039 0.298482
304 1 0.205791 0.504853 0.299663
311 1 -0.000669037 0.611607 0.198516
312 1 0.0986896 0.70544 0.198692
313 1 0.0963451 0.601962 0.296381
314 1 0.0020051 0.703576 0.291509
315 1 0.209683 0.604614 0.196517
318 1 0.197055 0.699528 0.291957
303 1 0.302439 0.504682 0.19913
306 1 0.399873 0.502349 0.294173
316 1 0.306386 0.698784 0.194185
317 1 0.303186 0.60214 0.302953
319 1 0.404467 0.603076 0.200621
322 1 0.40012 0.697135 0.301118
305 1 0.505737 0.494715 0.193038
307 1 0.696233 0.501674 0.197142
308 1 0.601963 0.502376 0.290903
320 1 0.491266 0.702137 0.199462
321 1 0.500377 0.601595 0.303031
323 1 0.59388 0.600242 0.1953
324 1 0.69686 0.697601 0.20218
325 1 0.700334 0.60877 0.30423
326 1 0.594316 0.701246 0.296206
309 1 0.902763 0.499553 0.194865
310 1 0.798075 0.500084 0.294589
327 1 0.798965 0.60129 0.200752
328 1 0.898867 0.703127 0.190684
329 1 0.894618 0.604544 0.300292
330 1 0.797551 0.705433 0.296322
331 1 0.00863503 0.798889 0.190828
332 1 0.0923189 0.902577 0.202485
333 1 0.099007 0.806153 0.305728
334 1 -0.0040472 0.900319 0.298803
335 1 0.198618 0.801051 0.194201
338 1 0.200103 0.899486 0.300166
336 1 0.297177 0.899947 0.194827
337 1 0.305601 0.801087 0.303536
339 1 0.39707 0.80615 0.200146
342 1 0.40037 0.901801 0.303016
340 1 0.49405 0.895778 0.196985
341 1 0.497147 0.795776 0.305489
343 1 0.602233 0.804609 0.19479
344 1 0.69825 0.898183 0.197983
345 1 0.700917 0.801941 0.297493
346 1 0.5923 0.893873 0.298832
347 1 0.790756 0.797071 0.196471
348 1 0.90014 0.893152 0.201278
349 1 0.899337 0.797258 0.290783
350 1 0.800778 0.903324 0.298056
351 1 0.0973074 0.507384 0.400769
352 1 0.00127931 0.496093 0.500833
354 1 0.204642 0.50369 0.505135
361 1 -0.00355498 0.602593 0.405581
362 1 0.0932242 0.700067 0.397766
363 1 0.101146 0.603019 0.500304
364 1 -0.00949013 0.698093 0.501889
365 1 0.202058 0.598137 0.394265
368 1 0.197807 0.692199 0.494232
353 1 0.303234 0.509545 0.402199
356 1 0.397111 0.49604 0.501357
366 1 0.298799 0.704603 0.392668
367 1 0.302447 0.60486 0.498659
369 1 0.404986 0.59747 0.403738
372 1 0.397143 0.70519 0.503127
355 1 0.504287 0.501989 0.403837
357 1 0.699331 0.498103 0.393111
358 1 0.60191 0.501432 0.495101
370 1 0.500317 0.699739 0.403156
371 1 0.497485 0.605191 0.498454
373 1 0.603265 0.606599 0.398739
374 1 0.701822 0.702401 0.398142
375 1 0.70297 0.596578 0.500252
376 1 0.600115 0.700373 0.505089
359 1 0.89978 0.497811 0.398101
360 1 0.804808 0.493368 0.498343
377 1 0.801206 0.594305 0.40443
378 1 0.900843 0.701338 0.396598
379 1 0.89876 0.598797 0.499783
380 1 0.799472 0.699854 0.495742
381 1 -0.00741706 0.807463 0.403588
382 1 0.0979589 0.901303 0.397667
383 1 0.100454 0.79196 0.501159
384 1 0.00145473 0.895732 0.498448
385 1 0.20053 0.798812 0.405083
388 1 0.195458 0.894468 0.506445
386 1 0.298978 0.899611 0.404268
387 1 0.297264 0.789524 0.504683
389 1 0.400839 0.799792 0.401092
392 1 0.399614 0.895991 0.502361
390 1 0.501525 0.892142 0.407133
391 1 0.50403 0.797544 0.512245
393 1 0.602711 0.792706 0.401884
394 1 0.69492 0.890773 0.403982
395 1 0.697437 0.795156 0.511232
396 1 0.599535 0.895893 0.506115
397 1 0.806902 0.807297 0.402833
398 1 0.903746 0.904781 0.393662
399 1 0.896044 0.792393 0.507805
400 1 0.800593 0.890906 0.504058
401 1 0.0916086 0.502485 0.605345
402 1 -0.00861399 0.501445 0.702841
404 1 0.19381 0.496824 0.701103
411 1 -0.00339433 0.594124 0.598063
412 1 0.0938957 0.696266 0.602459
413 1 0.0922924 0.598005 0.700685
414 1 -0.00419293 0.700846 0.710123
415 1 0.195408 0.600379 0.601435
418 1 0.198106 0.688059 0.699502
403 1 0.298754 0.500353 0.6018
406 1 0.400101 0.498176 0.696642
416 1 0.29861 0.696295 0.60331
417 1 0.30134 0.602237 0.700109
419 1 0.404513 0.592138 0.600882
422 1 0.400093 0.699308 0.699349
405 1 0.501451 0.495458 0.598279
407 1 0.700468 0.506333 0.608657
408 1 0.602451 0.509974 0.701463
420 1 0.496344 0.700024 0.609327
421 1 0.499744 0.59814 0.703327
423 1 0.593529 0.597764 0.59617
424 1 0.702333 0.691747 0.601399
425 1 0.703551 0.604208 0.706984
426 1 0.601431 0.69361 0.698808
409 1 0.895349 0.494739 0.59984
410 1 0.800715 0.499655 0.705479
427 1 0.798842 0.598629 0.599063
428 1 0.90671 0.70382 0.607626
429 1 0.897236 0.598956 0.696899
430 1 0.809296 0.702401 0.702194
431 1 -0.00790449 0.805898 0.60055
432 1 0.0937285 0.895998 0.600151
433 1 0.101574 0.790445 0.69621
434 1 0.00938958 0.901114 0.698569
435 1 0.19448 0.787221 0.598438
438 1 0.19579 0.895599 0.694428
436 1 0.303659 0.895793 0.596463
437 1 0.30219 0.80456 0.694201
439 1 0.401081 0.796502 0.601744
442 1 0.400582 0.899442 0.696728
440 1 0.506659 0.905857 0.59848
441 1 0.498113 0.80293 0.702635
443 1 0.60551 0.797447 0.60575
444 1 0.698763 0.899323 0.602193
445 1 0.697666 0.791675 0.703924
446 1 0.605184 0.89864 0.69991
447 1 0.802932 0.798806 0.605049
448 1 0.898134 0.905737 0.596738
449 1 0.902173 0.801454 0.700208
450 1 0.793931 0.898987 0.699456
451 1 0.0913971 0.505441 0.803509
452 1 -0.00443631 0.493466 0.901973
454 1 0.200713 0.495552 0.900016
461 1 -0.00295999 0.602042 0.80701
462 1 0.105755 0.696858 0.806958
463 1 0.104149 0.595397 0.90345
464 1 0.00465757 0.704852 0.902251
465 1 0.19921 0.596813 0.799614
468 1 0.205474 0.698057 0.911189
453 1 0.30021 0.499141 0.793423
456 1 0.4057 0.498633 0.901913
466 1 0.293694 0.700886 0.79743
467 1 0.300778 0.592571 0.895742
469 1 0.398542 0.598285 0.807393
472 1 0.390799 0.698362 0.900911
455 1 0.501888 0.500001 0.798924
457 1 0.696961 0.497522 0.808385
458 1 0.589938 0.495914 0.908102
470 1 0.497097 0.706542 0.807006
471 1 0.49481 0.605457 0.910137
473 1 0.598206 0.597606 0.804933
474 1 0.700279 0.702129 0.800891
475 1 0.700649 0.60126 0.900102
476 1 0.592457 0.700263 0.904708
459 1 0.896703 0.501397 0.802453
460 1 0.799087 0.496972 0.905652
477 1 0.800943 0.595234 0.805743
478 1 0.896746 0.696914 0.802948
479 1 0.896643 0.599269 0.900735
480 1 0.798768 0.70146 0.893849
481 1 -0.0035402 0.8037 0.802827
482 1 0.10576 0.893208 0.795418
483 1 0.0964515 0.804183 0.906706
484 1 0.00503097 0.904429 0.897699
485 1 0.201234 0.798256 0.796002
488 1 0.198723 0.901533 0.897359
486 1 0.300002 0.900621 0.80384
487 1 0.293824 0.801872 0.902266
489 1 0.400015 0.802567 0.801991
492 1 0.395065 0.901575 0.90214
490 1 0.502523 0.901483 0.799148
491 1 0.490665 0.804997 0.897645
493 1 0.593007 0.799019 0.798919
494 1 0.699112 0.900368 0.800257
495 1 0.697408 0.801285 0.893677
496 1 0.59965 0.89794 0.897438
497 1 0.802161 0.801518 0.799023
498 1 0.906338 0.899975 0.796969
499 1 0.907234 0.797668 0.904748
500 1 0.8066 0.898598 0.897732
