LAMMPS (16 Feb 2016)
# INITIALISATION

units metal
pair_style eam/alloy

#defaults
dimension 3
boundary p p p
atom_style atomic

# ATOM DEFINITION

lattice fcc 3.6288
Lattice spacing in x,y,z = 3.6288 3.6288 3.6288

variable x equal 5
variable y equal 5
variable z equal 5

region simbox block 0 $x 0 $y 0 $z
region simbox block 0 5 0 $y 0 $z
region simbox block 0 5 0 5 0 $z
region simbox block 0 5 0 5 0 5
create_box 1 simbox
Created orthogonal box = (0 0 0) to (18.144 18.144 18.144)
  2 by 2 by 4 MPI processor grid
create_atoms 1 box
Created 500 atoms

# SETTINGS

pair_coeff * * /data/code/potentials/Cu_mishin1.eam.alloy Cu
Reading potential file /data/code/potentials/Cu_mishin1.eam.alloy with DATE: 2007-10-12
velocity all create 300.0 629 dist gaussian
fix 1 all nvt temp 300.0 300.0 0.1

dump myDump all atom 10000 uncompressed_300K.atom

#defaults
timestep 0.001

# RUN

# thermalisng for 10 ps
run 10000
Neighbor list info ...
  1 neighbor list requests
  update every 1 steps, delay 10 steps, check yes
  max neighbors/atom: 2000, page size: 100000
  master list distance cutoff = 7.50679
  ghost atom cutoff = 7.50679
  binsize = 3.75339 -> bins = 5 5 5
Memory usage per processor = 3.76251 Mbytes
Step Temp E_pair E_mol TotEng Press 
       0          300   -1769.7722            0    -1750.422   -12272.098 
   10000    285.84898   -1751.0328            0   -1732.5953    2858.3471 
Loop time of 2.67594 on 16 procs for 10000 steps with 500 atoms

Performance: 322.877 ns/day, 0.074 hours/ns, 3737.005 timesteps/s
99.9% CPU use with 16 MPI tasks x 1 OpenMP threads

MPI task timing breakdown:
Section |  min time  |  avg time  |  max time  |%varavg| %total
---------------------------------------------------------------
Pair    | 1.323      | 1.6074     | 1.8617     |  13.8 | 60.07
Neigh   | 0          | 0          | 0          |   0.0 |  0.00
Comm    | 0.70119    | 0.94849    | 1.2252     |  17.4 | 35.45
Output  | 0.00033498 | 0.00033736 | 0.00034618 |   0.0 |  0.01
Modify  | 0.062653   | 0.070531   | 0.081079   |   2.4 |  2.64
Other   |            | 0.04922    |            |       |  1.84

Nlocal:    31.25 ave 38 max 25 min
Histogram: 8 0 0 0 0 0 0 0 0 8
Nghost:    1046.75 ave 1053 max 1040 min
Histogram: 8 0 0 0 0 0 0 0 0 8
Neighs:    2187.5 ave 2666 max 1738 min
Histogram: 8 0 0 0 0 0 0 0 0 8

Total # of neighbors = 35000
Ave neighs/atom = 70
Neighbor list builds = 0
Dangerous builds = 0

Total wall time: 0:00:02
