ITEM: TIMESTEP
0
ITEM: NUMBER OF ATOMS
500
ITEM: BOX BOUNDS pp pp pp
0 18.144
0 18.144
0 18.144
ITEM: ATOMS id type xs ys zs
1 1 0 0 0
2 1 0.1 0.1 0
3 1 0.1 0 0.1
4 1 0 0.1 0.1
5 1 0.2 0 0
8 1 0.2 0.1 0.1
11 1 0 0.2 0
13 1 0.1 0.2 0.1
15 1 0.2 0.2 0
26 1 0 0 0.2
27 1 0.1 0.1 0.2
28 1 0.2 0 0.2
31 1 0 0.2 0.2
33 1 0.2 0.2 0.2
6 1 0.3 0.1 0
7 1 0.3 0 0.1
9 1 0.4 0 0
10 1 0.4 0.1 0.1
17 1 0.3 0.2 0.1
19 1 0.4 0.2 0
29 1 0.3 0.1 0.2
30 1 0.4 0 0.2
35 1 0.4 0.2 0.2
12 1 0.1 0.3 0
14 1 0 0.3 0.1
18 1 0.2 0.3 0.1
21 1 0 0.4 0
22 1 0.1 0.4 0.1
23 1 0.2 0.4 0
32 1 0.1 0.3 0.2
36 1 0 0.4 0.2
37 1 0.2 0.4 0.2
16 1 0.3 0.3 0
20 1 0.4 0.3 0.1
24 1 0.3 0.4 0.1
25 1 0.4 0.4 0
34 1 0.3 0.3 0.2
38 1 0.4 0.4 0.2
39 1 0.1 0 0.3
40 1 0 0.1 0.3
42 1 0.2 0.1 0.3
44 1 0.1 0.2 0.3
51 1 0 0 0.4
52 1 0.1 0.1 0.4
53 1 0.2 0 0.4
56 1 0 0.2 0.4
58 1 0.2 0.2 0.4
41 1 0.3 0 0.3
43 1 0.4 0.1 0.3
46 1 0.3 0.2 0.3
54 1 0.3 0.1 0.4
55 1 0.4 0 0.4
60 1 0.4 0.2 0.4
45 1 0 0.3 0.3
47 1 0.2 0.3 0.3
49 1 0.1 0.4 0.3
57 1 0.1 0.3 0.4
61 1 0 0.4 0.4
62 1 0.2 0.4 0.4
48 1 0.4 0.3 0.3
50 1 0.3 0.4 0.3
59 1 0.3 0.3 0.4
63 1 0.4 0.4 0.4
64 1 0.1 0 0.5
65 1 0 0.1 0.5
67 1 0.2 0.1 0.5
69 1 0.1 0.2 0.5
76 1 0 0 0.6
77 1 0.1 0.1 0.6
78 1 0.1 0 0.7
79 1 0 0.1 0.7
80 1 0.2 0 0.6
83 1 0.2 0.1 0.7
86 1 0 0.2 0.6
88 1 0.1 0.2 0.7
90 1 0.2 0.2 0.6
66 1 0.3 0 0.5
68 1 0.4 0.1 0.5
71 1 0.3 0.2 0.5
81 1 0.3 0.1 0.6
82 1 0.3 0 0.7
84 1 0.4 0 0.6
85 1 0.4 0.1 0.7
92 1 0.3 0.2 0.7
94 1 0.4 0.2 0.6
70 1 0 0.3 0.5
72 1 0.2 0.3 0.5
74 1 0.1 0.4 0.5
87 1 0.1 0.3 0.6
89 1 0 0.3 0.7
93 1 0.2 0.3 0.7
96 1 0 0.4 0.6
97 1 0.1 0.4 0.7
98 1 0.2 0.4 0.6
73 1 0.4 0.3 0.5
75 1 0.3 0.4 0.5
91 1 0.3 0.3 0.6
95 1 0.4 0.3 0.7
99 1 0.3 0.4 0.7
100 1 0.4 0.4 0.6
101 1 0 0 0.8
102 1 0.1 0.1 0.8
103 1 0.1 0 0.9
104 1 0 0.1 0.9
105 1 0.2 0 0.8
108 1 0.2 0.1 0.9
111 1 0 0.2 0.8
113 1 0.1 0.2 0.9
115 1 0.2 0.2 0.8
106 1 0.3 0.1 0.8
107 1 0.3 0 0.9
109 1 0.4 0 0.8
110 1 0.4 0.1 0.9
117 1 0.3 0.2 0.9
119 1 0.4 0.2 0.8
112 1 0.1 0.3 0.8
114 1 0 0.3 0.9
118 1 0.2 0.3 0.9
121 1 0 0.4 0.8
122 1 0.1 0.4 0.9
123 1 0.2 0.4 0.8
116 1 0.3 0.3 0.8
120 1 0.4 0.3 0.9
124 1 0.3 0.4 0.9
125 1 0.4 0.4 0.8
126 1 0.1 0.5 0
127 1 0 0.5 0.1
129 1 0.2 0.5 0.1
131 1 0 0.6 0
132 1 0.1 0.7 0
133 1 0.1 0.6 0.1
134 1 0 0.7 0.1
135 1 0.2 0.6 0
138 1 0.2 0.7 0.1
151 1 0.1 0.5 0.2
153 1 0 0.6 0.2
154 1 0.1 0.7 0.2
155 1 0.2 0.6 0.2
128 1 0.3 0.5 0
130 1 0.4 0.5 0.1
136 1 0.3 0.7 0
137 1 0.3 0.6 0.1
139 1 0.4 0.6 0
140 1 0.4 0.7 0.1
152 1 0.3 0.5 0.2
156 1 0.3 0.7 0.2
157 1 0.4 0.6 0.2
141 1 0 0.8 0
142 1 0.1 0.9 0
143 1 0.1 0.8 0.1
144 1 0 0.9 0.1
145 1 0.2 0.8 0
148 1 0.2 0.9 0.1
158 1 0 0.8 0.2
159 1 0.1 0.9 0.2
160 1 0.2 0.8 0.2
146 1 0.3 0.9 0
147 1 0.3 0.8 0.1
149 1 0.4 0.8 0
150 1 0.4 0.9 0.1
161 1 0.3 0.9 0.2
162 1 0.4 0.8 0.2
163 1 0 0.5 0.3
164 1 0.2 0.5 0.3
166 1 0.1 0.6 0.3
167 1 0 0.7 0.3
169 1 0.2 0.7 0.3
176 1 0.1 0.5 0.4
178 1 0 0.6 0.4
179 1 0.1 0.7 0.4
180 1 0.2 0.6 0.4
165 1 0.4 0.5 0.3
168 1 0.3 0.6 0.3
170 1 0.4 0.7 0.3
177 1 0.3 0.5 0.4
181 1 0.3 0.7 0.4
182 1 0.4 0.6 0.4
171 1 0.1 0.8 0.3
172 1 0 0.9 0.3
174 1 0.2 0.9 0.3
183 1 0 0.8 0.4
184 1 0.1 0.9 0.4
185 1 0.2 0.8 0.4
173 1 0.3 0.8 0.3
175 1 0.4 0.9 0.3
186 1 0.3 0.9 0.4
187 1 0.4 0.8 0.4
188 1 0 0.5 0.5
189 1 0.2 0.5 0.5
191 1 0.1 0.6 0.5
192 1 0 0.7 0.5
194 1 0.2 0.7 0.5
201 1 0.1 0.5 0.6
202 1 0 0.5 0.7
204 1 0.2 0.5 0.7
206 1 0 0.6 0.6
207 1 0.1 0.7 0.6
208 1 0.1 0.6 0.7
209 1 0 0.7 0.7
210 1 0.2 0.6 0.6
213 1 0.2 0.7 0.7
190 1 0.4 0.5 0.5
193 1 0.3 0.6 0.5
195 1 0.4 0.7 0.5
203 1 0.3 0.5 0.6
205 1 0.4 0.5 0.7
211 1 0.3 0.7 0.6
212 1 0.3 0.6 0.7
214 1 0.4 0.6 0.6
215 1 0.4 0.7 0.7
196 1 0.1 0.8 0.5
197 1 0 0.9 0.5
199 1 0.2 0.9 0.5
216 1 0 0.8 0.6
217 1 0.1 0.9 0.6
218 1 0.1 0.8 0.7
219 1 0 0.9 0.7
220 1 0.2 0.8 0.6
223 1 0.2 0.9 0.7
198 1 0.3 0.8 0.5
200 1 0.4 0.9 0.5
221 1 0.3 0.9 0.6
222 1 0.3 0.8 0.7
224 1 0.4 0.8 0.6
225 1 0.4 0.9 0.7
226 1 0.1 0.5 0.8
227 1 0 0.5 0.9
229 1 0.2 0.5 0.9
231 1 0 0.6 0.8
232 1 0.1 0.7 0.8
233 1 0.1 0.6 0.9
234 1 0 0.7 0.9
235 1 0.2 0.6 0.8
238 1 0.2 0.7 0.9
228 1 0.3 0.5 0.8
230 1 0.4 0.5 0.9
236 1 0.3 0.7 0.8
237 1 0.3 0.6 0.9
239 1 0.4 0.6 0.8
240 1 0.4 0.7 0.9
241 1 0 0.8 0.8
242 1 0.1 0.9 0.8
243 1 0.1 0.8 0.9
244 1 0 0.9 0.9
245 1 0.2 0.8 0.8
248 1 0.2 0.9 0.9
246 1 0.3 0.9 0.8
247 1 0.3 0.8 0.9
249 1 0.4 0.8 0.8
250 1 0.4 0.9 0.9
251 1 0.5 0.1 0
252 1 0.5 0 0.1
253 1 0.6 0 0
254 1 0.7 0.1 0
255 1 0.7 0 0.1
256 1 0.6 0.1 0.1
262 1 0.5 0.2 0.1
263 1 0.6 0.2 0
265 1 0.7 0.2 0.1
276 1 0.5 0.1 0.2
277 1 0.6 0 0.2
278 1 0.7 0.1 0.2
282 1 0.6 0.2 0.2
257 1 0.8 0 0
258 1 0.9 0.1 0
259 1 0.9 0 0.1
260 1 0.8 0.1 0.1
267 1 0.8 0.2 0
269 1 0.9 0.2 0.1
279 1 0.8 0 0.2
280 1 0.9 0.1 0.2
284 1 0.8 0.2 0.2
261 1 0.5 0.3 0
264 1 0.7 0.3 0
266 1 0.6 0.3 0.1
271 1 0.5 0.4 0.1
272 1 0.6 0.4 0
273 1 0.7 0.4 0.1
281 1 0.5 0.3 0.2
283 1 0.7 0.3 0.2
286 1 0.6 0.4 0.2
268 1 0.9 0.3 0
270 1 0.8 0.3 0.1
274 1 0.8 0.4 0
275 1 0.9 0.4 0.1
285 1 0.9 0.3 0.2
287 1 0.8 0.4 0.2
288 1 0.5 0 0.3
289 1 0.7 0 0.3
290 1 0.6 0.1 0.3
293 1 0.5 0.2 0.3
294 1 0.7 0.2 0.3
301 1 0.5 0.1 0.4
302 1 0.6 0 0.4
303 1 0.7 0.1 0.4
307 1 0.6 0.2 0.4
291 1 0.9 0 0.3
292 1 0.8 0.1 0.3
296 1 0.9 0.2 0.3
304 1 0.8 0 0.4
305 1 0.9 0.1 0.4
309 1 0.8 0.2 0.4
295 1 0.6 0.3 0.3
298 1 0.5 0.4 0.3
299 1 0.7 0.4 0.3
306 1 0.5 0.3 0.4
308 1 0.7 0.3 0.4
311 1 0.6 0.4 0.4
297 1 0.8 0.3 0.3
300 1 0.9 0.4 0.3
310 1 0.9 0.3 0.4
312 1 0.8 0.4 0.4
313 1 0.5 0 0.5
314 1 0.7 0 0.5
315 1 0.6 0.1 0.5
318 1 0.5 0.2 0.5
319 1 0.7 0.2 0.5
326 1 0.5 0.1 0.6
327 1 0.5 0 0.7
328 1 0.6 0 0.6
329 1 0.7 0.1 0.6
330 1 0.7 0 0.7
331 1 0.6 0.1 0.7
337 1 0.5 0.2 0.7
338 1 0.6 0.2 0.6
340 1 0.7 0.2 0.7
316 1 0.9 0 0.5
317 1 0.8 0.1 0.5
321 1 0.9 0.2 0.5
332 1 0.8 0 0.6
333 1 0.9 0.1 0.6
334 1 0.9 0 0.7
335 1 0.8 0.1 0.7
342 1 0.8 0.2 0.6
344 1 0.9 0.2 0.7
320 1 0.6 0.3 0.5
323 1 0.5 0.4 0.5
324 1 0.7 0.4 0.5
336 1 0.5 0.3 0.6
339 1 0.7 0.3 0.6
341 1 0.6 0.3 0.7
346 1 0.5 0.4 0.7
347 1 0.6 0.4 0.6
348 1 0.7 0.4 0.7
322 1 0.8 0.3 0.5
325 1 0.9 0.4 0.5
343 1 0.9 0.3 0.6
345 1 0.8 0.3 0.7
349 1 0.8 0.4 0.6
350 1 0.9 0.4 0.7
351 1 0.5 0.1 0.8
352 1 0.5 0 0.9
353 1 0.6 0 0.8
354 1 0.7 0.1 0.8
355 1 0.7 0 0.9
356 1 0.6 0.1 0.9
362 1 0.5 0.2 0.9
363 1 0.6 0.2 0.8
365 1 0.7 0.2 0.9
357 1 0.8 0 0.8
358 1 0.9 0.1 0.8
359 1 0.9 0 0.9
360 1 0.8 0.1 0.9
367 1 0.8 0.2 0.8
369 1 0.9 0.2 0.9
361 1 0.5 0.3 0.8
364 1 0.7 0.3 0.8
366 1 0.6 0.3 0.9
371 1 0.5 0.4 0.9
372 1 0.6 0.4 0.8
373 1 0.7 0.4 0.9
368 1 0.9 0.3 0.8
370 1 0.8 0.3 0.9
374 1 0.8 0.4 0.8
375 1 0.9 0.4 0.9
376 1 0.5 0.5 0
377 1 0.7 0.5 0
378 1 0.6 0.5 0.1
381 1 0.5 0.7 0
382 1 0.5 0.6 0.1
383 1 0.6 0.6 0
384 1 0.7 0.7 0
385 1 0.7 0.6 0.1
386 1 0.6 0.7 0.1
401 1 0.5 0.5 0.2
402 1 0.7 0.5 0.2
404 1 0.5 0.7 0.2
405 1 0.6 0.6 0.2
406 1 0.7 0.7 0.2
379 1 0.9 0.5 0
380 1 0.8 0.5 0.1
387 1 0.8 0.6 0
388 1 0.9 0.7 0
389 1 0.9 0.6 0.1
390 1 0.8 0.7 0.1
403 1 0.9 0.5 0.2
407 1 0.8 0.6 0.2
408 1 0.9 0.7 0.2
391 1 0.5 0.9 0
392 1 0.5 0.8 0.1
393 1 0.6 0.8 0
394 1 0.7 0.9 0
395 1 0.7 0.8 0.1
396 1 0.6 0.9 0.1
409 1 0.5 0.9 0.2
410 1 0.6 0.8 0.2
411 1 0.7 0.9 0.2
397 1 0.8 0.8 0
398 1 0.9 0.9 0
399 1 0.9 0.8 0.1
400 1 0.8 0.9 0.1
412 1 0.8 0.8 0.2
413 1 0.9 0.9 0.2
414 1 0.6 0.5 0.3
416 1 0.5 0.6 0.3
417 1 0.7 0.6 0.3
418 1 0.6 0.7 0.3
426 1 0.5 0.5 0.4
427 1 0.7 0.5 0.4
429 1 0.5 0.7 0.4
430 1 0.6 0.6 0.4
431 1 0.7 0.7 0.4
415 1 0.8 0.5 0.3
419 1 0.9 0.6 0.3
420 1 0.8 0.7 0.3
428 1 0.9 0.5 0.4
432 1 0.8 0.6 0.4
433 1 0.9 0.7 0.4
421 1 0.5 0.8 0.3
422 1 0.7 0.8 0.3
423 1 0.6 0.9 0.3
434 1 0.5 0.9 0.4
435 1 0.6 0.8 0.4
436 1 0.7 0.9 0.4
424 1 0.9 0.8 0.3
425 1 0.8 0.9 0.3
437 1 0.8 0.8 0.4
438 1 0.9 0.9 0.4
439 1 0.6 0.5 0.5
441 1 0.5 0.6 0.5
442 1 0.7 0.6 0.5
443 1 0.6 0.7 0.5
451 1 0.5 0.5 0.6
452 1 0.7 0.5 0.6
453 1 0.6 0.5 0.7
456 1 0.5 0.7 0.6
457 1 0.5 0.6 0.7
458 1 0.6 0.6 0.6
459 1 0.7 0.7 0.6
460 1 0.7 0.6 0.7
461 1 0.6 0.7 0.7
440 1 0.8 0.5 0.5
444 1 0.9 0.6 0.5
445 1 0.8 0.7 0.5
454 1 0.9 0.5 0.6
455 1 0.8 0.5 0.7
462 1 0.8 0.6 0.6
463 1 0.9 0.7 0.6
464 1 0.9 0.6 0.7
465 1 0.8 0.7 0.7
446 1 0.5 0.8 0.5
447 1 0.7 0.8 0.5
448 1 0.6 0.9 0.5
466 1 0.5 0.9 0.6
467 1 0.5 0.8 0.7
468 1 0.6 0.8 0.6
469 1 0.7 0.9 0.6
470 1 0.7 0.8 0.7
471 1 0.6 0.9 0.7
449 1 0.9 0.8 0.5
450 1 0.8 0.9 0.5
472 1 0.8 0.8 0.6
473 1 0.9 0.9 0.6
474 1 0.9 0.8 0.7
475 1 0.8 0.9 0.7
476 1 0.5 0.5 0.8
477 1 0.7 0.5 0.8
478 1 0.6 0.5 0.9
481 1 0.5 0.7 0.8
482 1 0.5 0.6 0.9
483 1 0.6 0.6 0.8
484 1 0.7 0.7 0.8
485 1 0.7 0.6 0.9
486 1 0.6 0.7 0.9
479 1 0.9 0.5 0.8
480 1 0.8 0.5 0.9
487 1 0.8 0.6 0.8
488 1 0.9 0.7 0.8
489 1 0.9 0.6 0.9
490 1 0.8 0.7 0.9
491 1 0.5 0.9 0.8
492 1 0.5 0.8 0.9
493 1 0.6 0.8 0.8
494 1 0.7 0.9 0.8
495 1 0.7 0.8 0.9
496 1 0.6 0.9 0.9
497 1 0.8 0.8 0.8
498 1 0.9 0.9 0.8
499 1 0.9 0.8 0.9
500 1 0.8 0.9 0.9
ITEM: TIMESTEP
10000
ITEM: NUMBER OF ATOMS
500
ITEM: BOX BOUNDS pp pp pp
0 18.144
0 18.144
0 18.144
ITEM: ATOMS id type xs ys zs
1 1 -0.00299779 0.000233258 0.00261619
2 1 0.104742 0.104145 -0.00873405
3 1 0.0958783 9.31763e-05 0.0992205
4 1 0.00929745 0.0994017 0.0945307
5 1 0.192135 0.00255352 0.00293423
8 1 0.199168 0.100125 0.104998
11 1 -5.35133e-05 0.199607 -0.00313881
13 1 0.101513 0.211973 0.102814
15 1 0.202373 0.196484 -0.00143058
26 1 0.011652 -0.000141325 0.196007
27 1 0.0992282 0.0957323 0.209324
28 1 0.197306 0.00316639 0.201193
31 1 -0.0028496 0.197765 0.196273
33 1 0.199025 0.19662 0.201607
6 1 0.305867 0.101063 -0.00332011
7 1 0.30478 -0.000810533 0.0998646
9 1 0.392202 -0.00605066 -0.0036888
10 1 0.402166 0.10304 0.101
17 1 0.30509 0.204198 0.0980836
19 1 0.402542 0.199546 0.00506793
29 1 0.299535 0.0987013 0.195913
30 1 0.405856 0.00742273 0.197363
35 1 0.404261 0.197142 0.202506
12 1 0.0951323 0.298596 -0.000785286
14 1 -0.000742103 0.294664 0.100978
18 1 0.198205 0.297432 0.0975089
21 1 0.00177915 0.404084 -0.000697915
22 1 0.0947177 0.403469 0.0965548
23 1 0.196801 0.403069 -0.00213895
32 1 0.0967683 0.303317 0.202133
36 1 0.00147622 0.405085 0.198291
37 1 0.199843 0.398653 0.199418
16 1 0.299481 0.303517 -0.00339204
20 1 0.40729 0.302937 0.089605
24 1 0.30135 0.393445 0.0996374
25 1 0.403714 0.404512 -0.000130918
34 1 0.296102 0.297758 0.200072
38 1 0.397969 0.395045 0.200862
39 1 0.101433 -0.0100985 0.310685
40 1 -0.00332366 0.104121 0.300682
42 1 0.196639 0.103321 0.311279
44 1 0.096746 0.200043 0.303675
51 1 -0.00911754 0.000332283 0.397322
52 1 0.0965748 0.100271 0.402743
53 1 0.205501 -0.00257428 0.397294
56 1 0.00182806 0.192924 0.398468
58 1 0.196411 0.20888 0.402704
41 1 0.302266 0.00247033 0.289995
43 1 0.400262 0.107086 0.304069
46 1 0.302294 0.199868 0.301852
54 1 0.299342 0.100586 0.401274
55 1 0.410044 0.00125121 0.391589
60 1 0.397942 0.196378 0.402935
45 1 -0.00263955 0.297954 0.294789
47 1 0.198326 0.302216 0.300439
49 1 0.104737 0.403674 0.297598
57 1 0.0982362 0.295108 0.396105
61 1 0.0014933 0.405088 0.401592
62 1 0.195725 0.396663 0.400988
48 1 0.398804 0.295057 0.305203
50 1 0.30479 0.39691 0.296443
59 1 0.299478 0.308621 0.412168
63 1 0.403642 0.395128 0.406
64 1 0.106959 -0.00508449 0.495183
65 1 0.00379387 0.0914387 0.502159
67 1 0.194934 0.100904 0.499372
69 1 0.104403 0.194076 0.503796
76 1 5.36107e-05 -0.00615387 0.593658
77 1 0.0994277 0.101869 0.60125
78 1 0.106994 -0.000183058 0.698748
79 1 0.00392653 0.0983875 0.701181
80 1 0.200047 0.00011282 0.601019
83 1 0.196119 0.0967642 0.703112
86 1 -0.00419651 0.201331 0.597312
88 1 0.0963153 0.200383 0.697717
90 1 0.200666 0.200742 0.60866
66 1 0.298673 0.000263795 0.490033
68 1 0.4027 0.100801 0.501042
71 1 0.287348 0.201185 0.503354
81 1 0.294018 0.0984332 0.596767
82 1 0.299281 0.000218297 0.699314
84 1 0.388904 -0.000137392 0.598955
85 1 0.398059 0.103301 0.695975
92 1 0.299536 0.209039 0.700641
94 1 0.401954 0.194673 0.594316
70 1 0.00323889 0.300798 0.499396
72 1 0.196193 0.303262 0.506341
74 1 0.0956358 0.401732 0.504831
87 1 0.0983526 0.298564 0.597731
89 1 -0.00379644 0.299845 0.699353
93 1 0.197994 0.308181 0.699827
96 1 -0.00267918 0.397425 0.611732
97 1 0.0944108 0.400286 0.701749
98 1 0.195311 0.403212 0.603628
73 1 0.402446 0.299953 0.508713
75 1 0.30184 0.404635 0.500761
91 1 0.30316 0.30291 0.59969
95 1 0.40219 0.304106 0.703084
99 1 0.304075 0.399875 0.702641
100 1 0.398823 0.405542 0.595718
101 1 0.00423012 -0.00260264 0.796388
102 1 0.101445 0.0992532 0.81069
103 1 0.0967295 -0.00492922 0.903081
104 1 -0.00593027 0.10542 0.89998
105 1 0.204038 0.000287613 0.806387
108 1 0.19867 0.0976 0.906521
111 1 0.00480362 0.198293 0.798583
113 1 0.10264 0.20908 0.89871
115 1 0.202786 0.19936 0.799531
106 1 0.298337 0.104595 0.794735
107 1 0.294015 0.00820273 0.89983
109 1 0.389606 0.00321278 0.799265
110 1 0.40438 0.100593 0.897509
117 1 0.295549 0.204442 0.898308
119 1 0.407954 0.208554 0.804291
112 1 0.0982043 0.301051 0.803153
114 1 -0.00851247 0.299139 0.896498
118 1 0.199222 0.304944 0.897747
121 1 0.00267001 0.398176 0.809094
122 1 0.0985512 0.408229 0.909223
123 1 0.195752 0.400827 0.808268
116 1 0.301421 0.303222 0.800146
120 1 0.397686 0.307708 0.898338
124 1 0.299663 0.403524 0.899851
125 1 0.404674 0.397137 0.802752
126 1 0.0965024 0.507592 -0.00245188
127 1 0.00334065 0.503147 0.0988084
129 1 0.194513 0.497187 0.0968719
131 1 -0.00704953 0.606369 -0.0021473
132 1 0.0990663 0.700074 0.00308039
133 1 0.10234 0.601691 0.104959
134 1 0.000734618 0.697278 0.102545
135 1 0.192654 0.599161 0.00734208
138 1 0.206414 0.698467 0.103496
151 1 0.098851 0.50256 0.201303
153 1 0.00514877 0.604217 0.203185
154 1 0.103822 0.704247 0.195795
155 1 0.195925 0.598444 0.205696
128 1 0.304684 0.496928 -0.00219844
130 1 0.401358 0.493537 0.0988869
136 1 0.298386 0.697776 -0.00457965
137 1 0.304606 0.593825 0.0955428
139 1 0.402905 0.595129 -0.000176193
140 1 0.399672 0.698433 0.0937033
152 1 0.300495 0.498762 0.195265
156 1 0.300808 0.694953 0.200973
157 1 0.405246 0.599198 0.195445
141 1 0.00127625 0.79583 0.00716191
142 1 0.102173 0.902997 0.00255019
143 1 0.0987542 0.804533 0.0983329
144 1 0.00164225 0.905466 0.0992602
145 1 0.194682 0.801568 0.0034078
148 1 0.200577 0.898323 0.103945
158 1 0.00366024 0.802516 0.194683
159 1 0.109875 0.898549 0.198937
160 1 0.215615 0.795162 0.197207
146 1 0.29349 0.901561 -0.00574659
147 1 0.302072 0.799961 0.0997276
149 1 0.39714 0.799916 -0.00147763
150 1 0.39566 0.90334 0.0957266
161 1 0.301203 0.905269 0.203097
162 1 0.396187 0.800651 0.201676
163 1 0.00785714 0.508674 0.309635
164 1 0.201975 0.496995 0.297826
166 1 0.102016 0.602267 0.298912
167 1 0.00188221 0.697683 0.302865
169 1 0.202951 0.706406 0.298186
176 1 0.103908 0.504858 0.402555
178 1 0.00686342 0.601861 0.41085
179 1 0.102121 0.700679 0.405446
180 1 0.200068 0.603525 0.395389
165 1 0.402438 0.498515 0.298433
168 1 0.302238 0.59518 0.295156
170 1 0.409578 0.696992 0.300046
177 1 0.303614 0.499264 0.39045
181 1 0.305124 0.697532 0.398866
182 1 0.393274 0.602237 0.405266
171 1 0.0961276 0.802416 0.30365
172 1 0.00179993 0.902518 0.295092
174 1 0.205807 0.895093 0.30188
183 1 0.00534812 0.796187 0.401367
184 1 0.0987712 0.89894 0.410102
185 1 0.201865 0.794827 0.395938
173 1 0.312743 0.790272 0.30372
175 1 0.400532 0.894743 0.293185
186 1 0.309874 0.899888 0.397352
187 1 0.401708 0.803982 0.397932
188 1 0.000531883 0.499294 0.500141
189 1 0.201836 0.49843 0.49624
191 1 0.105534 0.597447 0.501584
192 1 -0.00118676 0.69932 0.508398
194 1 0.200845 0.70363 0.501343
201 1 0.0961856 0.501665 0.606809
202 1 -0.00559489 0.498482 0.71088
204 1 0.207478 0.500624 0.703223
206 1 0.00148118 0.599561 0.598004
207 1 0.101331 0.699971 0.605009
208 1 0.0934178 0.599803 0.706062
209 1 0.00103985 0.698027 0.700066
210 1 0.190348 0.600996 0.604723
213 1 0.197848 0.700579 0.704581
190 1 0.400048 0.502628 0.496138
193 1 0.293603 0.598729 0.497798
195 1 0.400788 0.701246 0.495914
203 1 0.29878 0.501633 0.597868
205 1 0.400242 0.498479 0.699814
211 1 0.301669 0.699592 0.601894
212 1 0.300743 0.600477 0.701191
214 1 0.39714 0.603514 0.59899
215 1 0.403326 0.695695 0.697582
196 1 0.104812 0.798145 0.503484
197 1 -0.00112179 0.898749 0.499354
199 1 0.210823 0.895057 0.493051
216 1 0.000445985 0.797639 0.592395
217 1 0.101418 0.902032 0.591389
218 1 0.102129 0.803152 0.703818
219 1 0.00739095 0.90208 0.69416
220 1 0.202793 0.797334 0.598986
223 1 0.19651 0.896998 0.700743
198 1 0.303413 0.790726 0.50022
200 1 0.402294 0.899448 0.500551
221 1 0.298026 0.900243 0.602687
222 1 0.297882 0.796891 0.700982
224 1 0.399694 0.79497 0.599225
225 1 0.396999 0.900349 0.697955
226 1 0.0985672 0.501402 0.803862
227 1 0.000484791 0.50531 0.901251
229 1 0.19666 0.509471 0.905098
231 1 -0.00642413 0.601747 0.798029
232 1 0.0917796 0.699831 0.798045
233 1 0.0973007 0.603842 0.898456
234 1 -0.00376619 0.702876 0.902971
235 1 0.201845 0.59637 0.803918
238 1 0.194707 0.697303 0.907425
228 1 0.305161 0.495304 0.804878
230 1 0.406593 0.498966 0.896353
236 1 0.301642 0.698561 0.80494
237 1 0.300038 0.597361 0.897458
239 1 0.39332 0.601702 0.803363
240 1 0.407656 0.704485 0.901343
241 1 0.00111581 0.807754 0.796639
242 1 0.098072 0.907925 0.801593
243 1 0.0967721 0.797813 0.901092
244 1 0.00217795 0.895 0.906208
245 1 0.188883 0.79905 0.808457
248 1 0.200552 0.901516 0.900425
246 1 0.294499 0.899578 0.797311
247 1 0.293543 0.796553 0.898163
249 1 0.397461 0.803147 0.799812
250 1 0.393716 0.905708 0.899024
251 1 0.494724 0.0949726 -0.00551724
252 1 0.491438 0.00162468 0.0966796
253 1 0.600913 0.00208218 -0.00164411
254 1 0.703773 0.0988925 0.00265295
255 1 0.707299 0.000664349 0.103947
256 1 0.594181 0.100446 0.101551
262 1 0.50184 0.200233 0.101435
263 1 0.60238 0.196469 0.00589253
265 1 0.699656 0.198437 0.104618
276 1 0.500583 0.103557 0.202515
277 1 0.601155 0.00146585 0.194795
278 1 0.697174 0.0965818 0.202293
282 1 0.594934 0.201072 0.204348
257 1 0.799959 -0.0043515 -0.00100513
258 1 0.899173 0.103497 -0.00236555
259 1 0.901615 3.83709e-06 0.101923
260 1 0.795858 0.0963745 0.0983842
267 1 0.800927 0.202174 0.00290143
269 1 0.898559 0.197789 0.0992161
279 1 0.795526 -0.00777872 0.203245
280 1 0.899424 0.0985795 0.194891
284 1 0.80046 0.194646 0.197755
261 1 0.503431 0.301362 0.000802501
264 1 0.697609 0.297862 -0.00155002
266 1 0.601887 0.298632 0.108302
271 1 0.500845 0.396658 0.100218
272 1 0.605327 0.403309 -0.000263875
273 1 0.701912 0.392808 0.0933218
281 1 0.496795 0.301572 0.200229
283 1 0.702302 0.28983 0.204912
286 1 0.602918 0.400976 0.192977
268 1 0.901653 0.303026 0.00609548
270 1 0.798236 0.299434 0.0989774
274 1 0.80557 0.404427 -0.000749961
275 1 0.898188 0.400677 0.102751
285 1 0.901611 0.296204 0.197951
287 1 0.792698 0.407436 0.195796
288 1 0.50165 0.000457494 0.295905
289 1 0.698515 0.00121715 0.302503
290 1 0.592195 0.0958669 0.299193
293 1 0.50966 0.206944 0.301662
294 1 0.701534 0.18863 0.300488
301 1 0.503049 0.105404 0.40121
302 1 0.601236 0.00385394 0.402469
303 1 0.710169 0.10104 0.398688
307 1 0.60886 0.199429 0.400115
291 1 0.894071 0.00301452 0.29812
292 1 0.805962 0.0949387 0.296758
296 1 0.895684 0.192735 0.295273
304 1 0.803859 0.00112956 0.399365
305 1 0.896081 0.100392 0.399211
309 1 0.801242 0.200981 0.393474
295 1 0.596421 0.312155 0.299121
298 1 0.499627 0.399671 0.297137
299 1 0.697324 0.406626 0.292891
306 1 0.499824 0.29754 0.402951
308 1 0.695373 0.308769 0.401946
311 1 0.593317 0.405309 0.402901
297 1 0.794664 0.299813 0.300526
300 1 0.905124 0.406112 0.288283
310 1 0.901924 0.307113 0.397014
312 1 0.801567 0.397111 0.398966
313 1 0.490845 0.00656064 0.499549
314 1 0.703501 0.00221715 0.497354
315 1 0.606338 0.100037 0.496874
318 1 0.502677 0.198654 0.496832
319 1 0.701045 0.200678 0.499844
326 1 0.496382 0.0968383 0.604178
327 1 0.496529 0.000356231 0.701431
328 1 0.597004 -0.00498509 0.591653
329 1 0.698049 0.101121 0.598818
330 1 0.702112 -0.00965649 0.693485
331 1 0.598585 0.0928656 0.694523
337 1 0.500067 0.199784 0.70065
338 1 0.595627 0.200048 0.602049
340 1 0.698096 0.185517 0.699774
316 1 0.896232 -0.00388036 0.498607
317 1 0.809532 0.107605 0.508567
321 1 0.904583 0.202866 0.504488
332 1 0.798187 -0.0047325 0.59307
333 1 0.902382 0.0978162 0.603727
334 1 0.90524 -0.00334408 0.699072
335 1 0.799268 0.0932531 0.69576
342 1 0.803168 0.202002 0.597715
344 1 0.906839 0.194423 0.701937
320 1 0.604878 0.302418 0.499359
323 1 0.503344 0.394553 0.502411
324 1 0.699439 0.400111 0.506824
336 1 0.503218 0.303312 0.606712
339 1 0.699058 0.29765 0.607084
341 1 0.601823 0.304891 0.703813
346 1 0.499141 0.402183 0.699703
347 1 0.600938 0.402354 0.600205
348 1 0.701094 0.405899 0.697088
322 1 0.797581 0.290256 0.493632
325 1 0.897477 0.394475 0.498229
343 1 0.894154 0.302001 0.600431
345 1 0.792444 0.30256 0.694844
349 1 0.799372 0.398409 0.597637
350 1 0.894776 0.399691 0.704981
351 1 0.502801 0.0995648 0.806748
352 1 0.497138 -0.00676769 0.897179
353 1 0.604669 -0.00279601 0.797739
354 1 0.699001 0.0930528 0.794319
355 1 0.70562 0.000593627 0.902327
356 1 0.60805 0.0951256 0.901266
362 1 0.502909 0.197503 0.904328
363 1 0.606725 0.200818 0.808399
365 1 0.705098 0.1952 0.902043
357 1 0.801898 -0.00239271 0.797976
358 1 0.902285 0.0955647 0.794285
359 1 0.900634 -0.00353313 0.898016
360 1 0.800429 0.108001 0.903609
367 1 0.792547 0.198309 0.794483
369 1 0.894799 0.204372 0.893189
361 1 0.508414 0.2993 0.799012
364 1 0.703158 0.298096 0.801485
366 1 0.600671 0.294925 0.898982
371 1 0.506192 0.396513 0.89508
372 1 0.604943 0.405978 0.799784
373 1 0.697556 0.396364 0.900091
368 1 0.896571 0.291813 0.794751
370 1 0.800785 0.304227 0.902013
374 1 0.794492 0.399499 0.799856
375 1 0.899485 0.393507 0.892782
376 1 0.50257 0.503232 0.00144036
377 1 0.705882 0.499682 0.00323697
378 1 0.603148 0.494091 0.09904
381 1 0.503143 0.703008 -0.00339892
382 1 0.499874 0.594785 0.0937039
383 1 0.602751 0.599503 0.000658437
384 1 0.698493 0.702047 -0.00495289
385 1 0.698014 0.598139 0.0971492
386 1 0.603793 0.692874 0.101032
401 1 0.504262 0.500225 0.197708
402 1 0.695551 0.502463 0.195463
404 1 0.49838 0.702119 0.199686
405 1 0.596912 0.598972 0.193554
406 1 0.701213 0.699297 0.201824
379 1 0.901463 0.497562 -0.00652139
380 1 0.800348 0.498412 0.0991565
387 1 0.801901 0.598759 0.000765219
388 1 0.894127 0.702658 -0.00395073
389 1 0.8953 0.596247 0.102307
390 1 0.802899 0.693367 0.104047
403 1 0.911794 0.502769 0.202464
407 1 0.796296 0.593444 0.196423
408 1 0.897534 0.700896 0.203863
391 1 0.501115 0.899386 0.0089375
392 1 0.502296 0.798392 0.100192
393 1 0.598299 0.799868 0.00276817
394 1 0.694417 0.898878 0.00177285
395 1 0.704825 0.79646 0.0956878
396 1 0.602155 0.89816 0.100049
409 1 0.493749 0.894644 0.199695
410 1 0.598754 0.798178 0.206163
411 1 0.699196 0.897735 0.196912
397 1 0.794454 0.800107 0.00311698
398 1 0.898038 0.895049 -0.00190346
399 1 0.899485 0.794254 0.0996663
400 1 0.805134 0.894375 0.0997719
412 1 0.802361 0.796479 0.197304
413 1 0.903968 0.904286 0.197636
414 1 0.593928 0.496358 0.299216
416 1 0.505622 0.605103 0.297771
417 1 0.696681 0.600249 0.299939
418 1 0.606562 0.706539 0.300384
426 1 0.495428 0.494468 0.401405
427 1 0.695282 0.498332 0.393859
429 1 0.509733 0.700011 0.400318
430 1 0.595456 0.598398 0.40202
431 1 0.699931 0.694649 0.40321
415 1 0.793404 0.501501 0.300717
419 1 0.900266 0.601459 0.296464
420 1 0.806176 0.703153 0.301032
428 1 0.90084 0.502157 0.39632
432 1 0.796948 0.59521 0.394424
433 1 0.901824 0.701607 0.402208
421 1 0.502108 0.801454 0.299791
422 1 0.703804 0.802281 0.306249
423 1 0.60294 0.901178 0.296436
434 1 0.496605 0.902163 0.392729
435 1 0.594268 0.804664 0.405774
436 1 0.702297 0.89989 0.396733
424 1 0.904406 0.79889 0.29613
425 1 0.804948 0.901299 0.302673
437 1 0.80155 0.797669 0.395367
438 1 0.898516 0.896608 0.399921
439 1 0.59967 0.496268 0.507124
441 1 0.499906 0.596466 0.501309
442 1 0.698243 0.59921 0.498135
443 1 0.599377 0.696893 0.505153
451 1 0.493316 0.502592 0.598872
452 1 0.700222 0.500578 0.600123
453 1 0.59937 0.499862 0.698188
456 1 0.500929 0.705781 0.600791
457 1 0.497152 0.600466 0.69339
458 1 0.597636 0.595449 0.596814
459 1 0.696903 0.7045 0.604679
460 1 0.699254 0.605328 0.703116
461 1 0.596155 0.703179 0.699457
440 1 0.80045 0.497592 0.497341
444 1 0.893905 0.602239 0.495337
445 1 0.795942 0.704514 0.497272
454 1 0.894617 0.494399 0.596421
455 1 0.799306 0.504678 0.693402
462 1 0.797185 0.605722 0.598973
463 1 0.894228 0.702521 0.599687
464 1 0.902529 0.602235 0.688356
465 1 0.800011 0.706346 0.707702
446 1 0.498979 0.806581 0.501023
447 1 0.695099 0.801773 0.499006
448 1 0.594534 0.900804 0.498833
466 1 0.498744 0.896834 0.60095
467 1 0.496765 0.798964 0.705274
468 1 0.590131 0.800106 0.599855
469 1 0.694114 0.896923 0.595849
470 1 0.694948 0.805745 0.69724
471 1 0.593884 0.901593 0.697739
449 1 0.89896 0.79426 0.499772
450 1 0.797581 0.895339 0.498523
472 1 0.796807 0.798916 0.602996
473 1 0.90226 0.896802 0.593886
474 1 0.905045 0.798922 0.704292
475 1 0.806637 0.900086 0.703556
476 1 0.500946 0.50089 0.797182
477 1 0.703219 0.504308 0.798239
478 1 0.602827 0.496013 0.900286
481 1 0.497323 0.702695 0.801941
482 1 0.495291 0.596707 0.900309
483 1 0.586826 0.602343 0.799866
484 1 0.69381 0.704906 0.802008
485 1 0.704981 0.601924 0.895705
486 1 0.605329 0.701644 0.898009
479 1 0.896417 0.503963 0.802853
480 1 0.801582 0.497487 0.898172
487 1 0.800898 0.599004 0.794522
488 1 0.899973 0.702417 0.80213
489 1 0.898267 0.600141 0.902047
490 1 0.798825 0.705255 0.902394
491 1 0.491758 0.902769 0.799125
492 1 0.501344 0.803795 0.901686
493 1 0.596387 0.799514 0.799279
494 1 0.706736 0.896771 0.801031
495 1 0.69411 0.802754 0.903295
496 1 0.603219 0.903717 0.90167
497 1 0.800125 0.801852 0.801979
498 1 0.904988 0.903989 0.799809
499 1 0.895306 0.79781 0.900049
500 1 0.796004 0.897999 0.901577
