ITEM: TIMESTEP
0
ITEM: NUMBER OF ATOMS
32000
ITEM: BOX BOUNDS pp pp pp
0 72.3
0 72.3
0 72.3
ITEM: ATOMS id type xs ys zs
1 1 0 0 0
2 1 0.025 0.025 0
3 1 0.025 0 0.025
4 1 0 0.025 0.025
5 1 0.05 0 0
8 1 0.05 0.025 0.025
41 1 0 0.05 0
43 1 0.025 0.05 0.025
45 1 0.05 0.05 0
281 1 0 0 0.05
282 1 0.025 0.025 0.05
285 1 0.05 0 0.05
321 1 0 0.05 0.05
325 1 0.05 0.05 0.05
6 1 0.075 0.025 0
7 1 0.075 0 0.025
9 1 0.1 0 0
12 1 0.1 0.025 0.025
47 1 0.075 0.05 0.025
49 1 0.1 0.05 0
286 1 0.075 0.025 0.05
289 1 0.1 0 0.05
329 1 0.1 0.05 0.05
10 1 0.125 0.025 0
11 1 0.125 0 0.025
13 1 0.15 0 0
16 1 0.15 0.025 0.025
51 1 0.125 0.05 0.025
53 1 0.15 0.05 0
290 1 0.125 0.025 0.05
293 1 0.15 0 0.05
333 1 0.15 0.05 0.05
14 1 0.175 0.025 0
15 1 0.175 0 0.025
17 1 0.2 0 0
20 1 0.2 0.025 0.025
55 1 0.175 0.05 0.025
57 1 0.2 0.05 0
294 1 0.175 0.025 0.05
297 1 0.2 0 0.05
337 1 0.2 0.05 0.05
18 1 0.225 0.025 0
19 1 0.225 0 0.025
21 1 0.25 0 0
22 1 0.275 0.025 0
23 1 0.275 0 0.025
24 1 0.25 0.025 0.025
59 1 0.225 0.05 0.025
61 1 0.25 0.05 0
63 1 0.275 0.05 0.025
298 1 0.225 0.025 0.05
301 1 0.25 0 0.05
302 1 0.275 0.025 0.05
341 1 0.25 0.05 0.05
25 1 0.3 0 0
26 1 0.325 0.025 0
27 1 0.325 0 0.025
28 1 0.3 0.025 0.025
65 1 0.3 0.05 0
67 1 0.325 0.05 0.025
305 1 0.3 0 0.05
306 1 0.325 0.025 0.05
345 1 0.3 0.05 0.05
29 1 0.35 0 0
30 1 0.375 0.025 0
31 1 0.375 0 0.025
32 1 0.35 0.025 0.025
69 1 0.35 0.05 0
71 1 0.375 0.05 0.025
309 1 0.35 0 0.05
310 1 0.375 0.025 0.05
349 1 0.35 0.05 0.05
33 1 0.4 0 0
34 1 0.425 0.025 0
35 1 0.425 0 0.025
36 1 0.4 0.025 0.025
73 1 0.4 0.05 0
75 1 0.425 0.05 0.025
313 1 0.4 0 0.05
314 1 0.425 0.025 0.05
353 1 0.4 0.05 0.05
37 1 0.45 0 0
38 1 0.475 0.025 0
39 1 0.475 0 0.025
40 1 0.45 0.025 0.025
77 1 0.45 0.05 0
79 1 0.475 0.05 0.025
317 1 0.45 0 0.05
318 1 0.475 0.025 0.05
357 1 0.45 0.05 0.05
42 1 0.025 0.075 0
44 1 0 0.075 0.025
48 1 0.05 0.075 0.025
81 1 0 0.1 0
83 1 0.025 0.1 0.025
85 1 0.05 0.1 0
322 1 0.025 0.075 0.05
361 1 0 0.1 0.05
365 1 0.05 0.1 0.05
46 1 0.075 0.075 0
52 1 0.1 0.075 0.025
87 1 0.075 0.1 0.025
89 1 0.1 0.1 0
326 1 0.075 0.075 0.05
369 1 0.1 0.1 0.05
50 1 0.125 0.075 0
56 1 0.15 0.075 0.025
91 1 0.125 0.1 0.025
93 1 0.15 0.1 0
330 1 0.125 0.075 0.05
373 1 0.15 0.1 0.05
54 1 0.175 0.075 0
60 1 0.2 0.075 0.025
95 1 0.175 0.1 0.025
97 1 0.2 0.1 0
334 1 0.175 0.075 0.05
377 1 0.2 0.1 0.05
58 1 0.225 0.075 0
62 1 0.275 0.075 0
64 1 0.25 0.075 0.025
99 1 0.225 0.1 0.025
101 1 0.25 0.1 0
103 1 0.275 0.1 0.025
338 1 0.225 0.075 0.05
342 1 0.275 0.075 0.05
381 1 0.25 0.1 0.05
66 1 0.325 0.075 0
68 1 0.3 0.075 0.025
105 1 0.3 0.1 0
107 1 0.325 0.1 0.025
346 1 0.325 0.075 0.05
385 1 0.3 0.1 0.05
70 1 0.375 0.075 0
72 1 0.35 0.075 0.025
109 1 0.35 0.1 0
111 1 0.375 0.1 0.025
350 1 0.375 0.075 0.05
389 1 0.35 0.1 0.05
74 1 0.425 0.075 0
76 1 0.4 0.075 0.025
113 1 0.4 0.1 0
115 1 0.425 0.1 0.025
354 1 0.425 0.075 0.05
393 1 0.4 0.1 0.05
78 1 0.475 0.075 0
80 1 0.45 0.075 0.025
117 1 0.45 0.1 0
119 1 0.475 0.1 0.025
358 1 0.475 0.075 0.05
397 1 0.45 0.1 0.05
82 1 0.025 0.125 0
84 1 0 0.125 0.025
88 1 0.05 0.125 0.025
121 1 0 0.15 0
123 1 0.025 0.15 0.025
125 1 0.05 0.15 0
362 1 0.025 0.125 0.05
401 1 0 0.15 0.05
405 1 0.05 0.15 0.05
86 1 0.075 0.125 0
92 1 0.1 0.125 0.025
127 1 0.075 0.15 0.025
129 1 0.1 0.15 0
366 1 0.075 0.125 0.05
409 1 0.1 0.15 0.05
90 1 0.125 0.125 0
96 1 0.15 0.125 0.025
131 1 0.125 0.15 0.025
133 1 0.15 0.15 0
370 1 0.125 0.125 0.05
413 1 0.15 0.15 0.05
94 1 0.175 0.125 0
100 1 0.2 0.125 0.025
135 1 0.175 0.15 0.025
137 1 0.2 0.15 0
374 1 0.175 0.125 0.05
417 1 0.2 0.15 0.05
98 1 0.225 0.125 0
102 1 0.275 0.125 0
104 1 0.25 0.125 0.025
139 1 0.225 0.15 0.025
141 1 0.25 0.15 0
143 1 0.275 0.15 0.025
378 1 0.225 0.125 0.05
382 1 0.275 0.125 0.05
421 1 0.25 0.15 0.05
106 1 0.325 0.125 0
108 1 0.3 0.125 0.025
145 1 0.3 0.15 0
147 1 0.325 0.15 0.025
386 1 0.325 0.125 0.05
425 1 0.3 0.15 0.05
110 1 0.375 0.125 0
112 1 0.35 0.125 0.025
149 1 0.35 0.15 0
151 1 0.375 0.15 0.025
390 1 0.375 0.125 0.05
429 1 0.35 0.15 0.05
114 1 0.425 0.125 0
116 1 0.4 0.125 0.025
153 1 0.4 0.15 0
155 1 0.425 0.15 0.025
394 1 0.425 0.125 0.05
433 1 0.4 0.15 0.05
118 1 0.475 0.125 0
120 1 0.45 0.125 0.025
157 1 0.45 0.15 0
159 1 0.475 0.15 0.025
398 1 0.475 0.125 0.05
437 1 0.45 0.15 0.05
122 1 0.025 0.175 0
124 1 0 0.175 0.025
128 1 0.05 0.175 0.025
161 1 0 0.2 0
163 1 0.025 0.2 0.025
165 1 0.05 0.2 0
402 1 0.025 0.175 0.05
441 1 0 0.2 0.05
445 1 0.05 0.2 0.05
126 1 0.075 0.175 0
132 1 0.1 0.175 0.025
167 1 0.075 0.2 0.025
169 1 0.1 0.2 0
406 1 0.075 0.175 0.05
449 1 0.1 0.2 0.05
130 1 0.125 0.175 0
136 1 0.15 0.175 0.025
171 1 0.125 0.2 0.025
173 1 0.15 0.2 0
410 1 0.125 0.175 0.05
453 1 0.15 0.2 0.05
134 1 0.175 0.175 0
140 1 0.2 0.175 0.025
175 1 0.175 0.2 0.025
177 1 0.2 0.2 0
414 1 0.175 0.175 0.05
457 1 0.2 0.2 0.05
138 1 0.225 0.175 0
142 1 0.275 0.175 0
144 1 0.25 0.175 0.025
179 1 0.225 0.2 0.025
181 1 0.25 0.2 0
183 1 0.275 0.2 0.025
418 1 0.225 0.175 0.05
422 1 0.275 0.175 0.05
461 1 0.25 0.2 0.05
146 1 0.325 0.175 0
148 1 0.3 0.175 0.025
185 1 0.3 0.2 0
187 1 0.325 0.2 0.025
426 1 0.325 0.175 0.05
465 1 0.3 0.2 0.05
150 1 0.375 0.175 0
152 1 0.35 0.175 0.025
189 1 0.35 0.2 0
191 1 0.375 0.2 0.025
430 1 0.375 0.175 0.05
469 1 0.35 0.2 0.05
154 1 0.425 0.175 0
156 1 0.4 0.175 0.025
193 1 0.4 0.2 0
195 1 0.425 0.2 0.025
434 1 0.425 0.175 0.05
473 1 0.4 0.2 0.05
158 1 0.475 0.175 0
160 1 0.45 0.175 0.025
197 1 0.45 0.2 0
199 1 0.475 0.2 0.025
438 1 0.475 0.175 0.05
477 1 0.45 0.2 0.05
162 1 0.025 0.225 0
164 1 0 0.225 0.025
168 1 0.05 0.225 0.025
201 1 0 0.25 0
202 1 0.025 0.275 0
203 1 0.025 0.25 0.025
204 1 0 0.275 0.025
205 1 0.05 0.25 0
208 1 0.05 0.275 0.025
442 1 0.025 0.225 0.05
481 1 0 0.25 0.05
482 1 0.025 0.275 0.05
485 1 0.05 0.25 0.05
166 1 0.075 0.225 0
172 1 0.1 0.225 0.025
206 1 0.075 0.275 0
207 1 0.075 0.25 0.025
209 1 0.1 0.25 0
212 1 0.1 0.275 0.025
446 1 0.075 0.225 0.05
486 1 0.075 0.275 0.05
489 1 0.1 0.25 0.05
170 1 0.125 0.225 0
176 1 0.15 0.225 0.025
210 1 0.125 0.275 0
211 1 0.125 0.25 0.025
213 1 0.15 0.25 0
216 1 0.15 0.275 0.025
450 1 0.125 0.225 0.05
490 1 0.125 0.275 0.05
493 1 0.15 0.25 0.05
174 1 0.175 0.225 0
180 1 0.2 0.225 0.025
214 1 0.175 0.275 0
215 1 0.175 0.25 0.025
217 1 0.2 0.25 0
220 1 0.2 0.275 0.025
454 1 0.175 0.225 0.05
494 1 0.175 0.275 0.05
497 1 0.2 0.25 0.05
178 1 0.225 0.225 0
182 1 0.275 0.225 0
184 1 0.25 0.225 0.025
218 1 0.225 0.275 0
219 1 0.225 0.25 0.025
221 1 0.25 0.25 0
222 1 0.275 0.275 0
223 1 0.275 0.25 0.025
224 1 0.25 0.275 0.025
458 1 0.225 0.225 0.05
462 1 0.275 0.225 0.05
498 1 0.225 0.275 0.05
501 1 0.25 0.25 0.05
502 1 0.275 0.275 0.05
186 1 0.325 0.225 0
188 1 0.3 0.225 0.025
225 1 0.3 0.25 0
226 1 0.325 0.275 0
227 1 0.325 0.25 0.025
228 1 0.3 0.275 0.025
466 1 0.325 0.225 0.05
505 1 0.3 0.25 0.05
506 1 0.325 0.275 0.05
190 1 0.375 0.225 0
192 1 0.35 0.225 0.025
229 1 0.35 0.25 0
230 1 0.375 0.275 0
231 1 0.375 0.25 0.025
232 1 0.35 0.275 0.025
470 1 0.375 0.225 0.05
509 1 0.35 0.25 0.05
510 1 0.375 0.275 0.05
194 1 0.425 0.225 0
196 1 0.4 0.225 0.025
233 1 0.4 0.25 0
234 1 0.425 0.275 0
235 1 0.425 0.25 0.025
236 1 0.4 0.275 0.025
474 1 0.425 0.225 0.05
513 1 0.4 0.25 0.05
514 1 0.425 0.275 0.05
198 1 0.475 0.225 0
200 1 0.45 0.225 0.025
237 1 0.45 0.25 0
238 1 0.475 0.275 0
239 1 0.475 0.25 0.025
240 1 0.45 0.275 0.025
478 1 0.475 0.225 0.05
517 1 0.45 0.25 0.05
518 1 0.475 0.275 0.05
241 1 0 0.3 0
242 1 0.025 0.325 0
243 1 0.025 0.3 0.025
244 1 0 0.325 0.025
245 1 0.05 0.3 0
248 1 0.05 0.325 0.025
521 1 0 0.3 0.05
522 1 0.025 0.325 0.05
525 1 0.05 0.3 0.05
246 1 0.075 0.325 0
247 1 0.075 0.3 0.025
249 1 0.1 0.3 0
252 1 0.1 0.325 0.025
526 1 0.075 0.325 0.05
529 1 0.1 0.3 0.05
250 1 0.125 0.325 0
251 1 0.125 0.3 0.025
253 1 0.15 0.3 0
256 1 0.15 0.325 0.025
530 1 0.125 0.325 0.05
533 1 0.15 0.3 0.05
254 1 0.175 0.325 0
255 1 0.175 0.3 0.025
257 1 0.2 0.3 0
260 1 0.2 0.325 0.025
534 1 0.175 0.325 0.05
537 1 0.2 0.3 0.05
258 1 0.225 0.325 0
259 1 0.225 0.3 0.025
261 1 0.25 0.3 0
262 1 0.275 0.325 0
263 1 0.275 0.3 0.025
264 1 0.25 0.325 0.025
538 1 0.225 0.325 0.05
541 1 0.25 0.3 0.05
542 1 0.275 0.325 0.05
265 1 0.3 0.3 0
266 1 0.325 0.325 0
267 1 0.325 0.3 0.025
268 1 0.3 0.325 0.025
545 1 0.3 0.3 0.05
546 1 0.325 0.325 0.05
269 1 0.35 0.3 0
270 1 0.375 0.325 0
271 1 0.375 0.3 0.025
272 1 0.35 0.325 0.025
549 1 0.35 0.3 0.05
550 1 0.375 0.325 0.05
273 1 0.4 0.3 0
274 1 0.425 0.325 0
275 1 0.425 0.3 0.025
276 1 0.4 0.325 0.025
553 1 0.4 0.3 0.05
554 1 0.425 0.325 0.05
277 1 0.45 0.3 0
278 1 0.475 0.325 0
279 1 0.475 0.3 0.025
280 1 0.45 0.325 0.025
557 1 0.45 0.3 0.05
558 1 0.475 0.325 0.05
283 1 0.025 0 0.075
284 1 0 0.025 0.075
288 1 0.05 0.025 0.075
323 1 0.025 0.05 0.075
561 1 0 0 0.1
562 1 0.025 0.025 0.1
565 1 0.05 0 0.1
601 1 0 0.05 0.1
605 1 0.05 0.05 0.1
287 1 0.075 0 0.075
292 1 0.1 0.025 0.075
327 1 0.075 0.05 0.075
566 1 0.075 0.025 0.1
569 1 0.1 0 0.1
609 1 0.1 0.05 0.1
291 1 0.125 0 0.075
296 1 0.15 0.025 0.075
331 1 0.125 0.05 0.075
570 1 0.125 0.025 0.1
573 1 0.15 0 0.1
613 1 0.15 0.05 0.1
295 1 0.175 0 0.075
300 1 0.2 0.025 0.075
335 1 0.175 0.05 0.075
574 1 0.175 0.025 0.1
577 1 0.2 0 0.1
617 1 0.2 0.05 0.1
299 1 0.225 0 0.075
303 1 0.275 0 0.075
304 1 0.25 0.025 0.075
339 1 0.225 0.05 0.075
343 1 0.275 0.05 0.075
578 1 0.225 0.025 0.1
581 1 0.25 0 0.1
582 1 0.275 0.025 0.1
621 1 0.25 0.05 0.1
307 1 0.325 0 0.075
308 1 0.3 0.025 0.075
347 1 0.325 0.05 0.075
585 1 0.3 0 0.1
586 1 0.325 0.025 0.1
625 1 0.3 0.05 0.1
311 1 0.375 0 0.075
312 1 0.35 0.025 0.075
351 1 0.375 0.05 0.075
589 1 0.35 0 0.1
590 1 0.375 0.025 0.1
629 1 0.35 0.05 0.1
315 1 0.425 0 0.075
316 1 0.4 0.025 0.075
355 1 0.425 0.05 0.075
593 1 0.4 0 0.1
594 1 0.425 0.025 0.1
633 1 0.4 0.05 0.1
319 1 0.475 0 0.075
320 1 0.45 0.025 0.075
359 1 0.475 0.05 0.075
597 1 0.45 0 0.1
598 1 0.475 0.025 0.1
637 1 0.45 0.05 0.1
324 1 0 0.075 0.075
328 1 0.05 0.075 0.075
363 1 0.025 0.1 0.075
602 1 0.025 0.075 0.1
641 1 0 0.1 0.1
645 1 0.05 0.1 0.1
332 1 0.1 0.075 0.075
367 1 0.075 0.1 0.075
606 1 0.075 0.075 0.1
649 1 0.1 0.1 0.1
336 1 0.15 0.075 0.075
371 1 0.125 0.1 0.075
610 1 0.125 0.075 0.1
653 1 0.15 0.1 0.1
340 1 0.2 0.075 0.075
375 1 0.175 0.1 0.075
614 1 0.175 0.075 0.1
657 1 0.2 0.1 0.1
344 1 0.25 0.075 0.075
379 1 0.225 0.1 0.075
383 1 0.275 0.1 0.075
618 1 0.225 0.075 0.1
622 1 0.275 0.075 0.1
661 1 0.25 0.1 0.1
348 1 0.3 0.075 0.075
387 1 0.325 0.1 0.075
626 1 0.325 0.075 0.1
665 1 0.3 0.1 0.1
352 1 0.35 0.075 0.075
391 1 0.375 0.1 0.075
630 1 0.375 0.075 0.1
669 1 0.35 0.1 0.1
356 1 0.4 0.075 0.075
395 1 0.425 0.1 0.075
634 1 0.425 0.075 0.1
673 1 0.4 0.1 0.1
360 1 0.45 0.075 0.075
399 1 0.475 0.1 0.075
638 1 0.475 0.075 0.1
677 1 0.45 0.1 0.1
364 1 0 0.125 0.075
368 1 0.05 0.125 0.075
403 1 0.025 0.15 0.075
642 1 0.025 0.125 0.1
681 1 0 0.15 0.1
685 1 0.05 0.15 0.1
372 1 0.1 0.125 0.075
407 1 0.075 0.15 0.075
646 1 0.075 0.125 0.1
689 1 0.1 0.15 0.1
376 1 0.15 0.125 0.075
411 1 0.125 0.15 0.075
650 1 0.125 0.125 0.1
693 1 0.15 0.15 0.1
380 1 0.2 0.125 0.075
415 1 0.175 0.15 0.075
654 1 0.175 0.125 0.1
697 1 0.2 0.15 0.1
384 1 0.25 0.125 0.075
419 1 0.225 0.15 0.075
423 1 0.275 0.15 0.075
658 1 0.225 0.125 0.1
662 1 0.275 0.125 0.1
701 1 0.25 0.15 0.1
388 1 0.3 0.125 0.075
427 1 0.325 0.15 0.075
666 1 0.325 0.125 0.1
705 1 0.3 0.15 0.1
392 1 0.35 0.125 0.075
431 1 0.375 0.15 0.075
670 1 0.375 0.125 0.1
709 1 0.35 0.15 0.1
396 1 0.4 0.125 0.075
435 1 0.425 0.15 0.075
674 1 0.425 0.125 0.1
713 1 0.4 0.15 0.1
400 1 0.45 0.125 0.075
439 1 0.475 0.15 0.075
678 1 0.475 0.125 0.1
717 1 0.45 0.15 0.1
404 1 0 0.175 0.075
408 1 0.05 0.175 0.075
443 1 0.025 0.2 0.075
682 1 0.025 0.175 0.1
721 1 0 0.2 0.1
725 1 0.05 0.2 0.1
412 1 0.1 0.175 0.075
447 1 0.075 0.2 0.075
686 1 0.075 0.175 0.1
729 1 0.1 0.2 0.1
416 1 0.15 0.175 0.075
451 1 0.125 0.2 0.075
690 1 0.125 0.175 0.1
733 1 0.15 0.2 0.1
420 1 0.2 0.175 0.075
455 1 0.175 0.2 0.075
694 1 0.175 0.175 0.1
737 1 0.2 0.2 0.1
424 1 0.25 0.175 0.075
459 1 0.225 0.2 0.075
463 1 0.275 0.2 0.075
698 1 0.225 0.175 0.1
702 1 0.275 0.175 0.1
741 1 0.25 0.2 0.1
428 1 0.3 0.175 0.075
467 1 0.325 0.2 0.075
706 1 0.325 0.175 0.1
745 1 0.3 0.2 0.1
432 1 0.35 0.175 0.075
471 1 0.375 0.2 0.075
710 1 0.375 0.175 0.1
749 1 0.35 0.2 0.1
436 1 0.4 0.175 0.075
475 1 0.425 0.2 0.075
714 1 0.425 0.175 0.1
753 1 0.4 0.2 0.1
440 1 0.45 0.175 0.075
479 1 0.475 0.2 0.075
718 1 0.475 0.175 0.1
757 1 0.45 0.2 0.1
444 1 0 0.225 0.075
448 1 0.05 0.225 0.075
483 1 0.025 0.25 0.075
484 1 0 0.275 0.075
488 1 0.05 0.275 0.075
722 1 0.025 0.225 0.1
761 1 0 0.25 0.1
762 1 0.025 0.275 0.1
765 1 0.05 0.25 0.1
452 1 0.1 0.225 0.075
487 1 0.075 0.25 0.075
492 1 0.1 0.275 0.075
726 1 0.075 0.225 0.1
766 1 0.075 0.275 0.1
769 1 0.1 0.25 0.1
456 1 0.15 0.225 0.075
491 1 0.125 0.25 0.075
496 1 0.15 0.275 0.075
730 1 0.125 0.225 0.1
770 1 0.125 0.275 0.1
773 1 0.15 0.25 0.1
460 1 0.2 0.225 0.075
495 1 0.175 0.25 0.075
500 1 0.2 0.275 0.075
734 1 0.175 0.225 0.1
774 1 0.175 0.275 0.1
777 1 0.2 0.25 0.1
464 1 0.25 0.225 0.075
499 1 0.225 0.25 0.075
503 1 0.275 0.25 0.075
504 1 0.25 0.275 0.075
738 1 0.225 0.225 0.1
742 1 0.275 0.225 0.1
778 1 0.225 0.275 0.1
781 1 0.25 0.25 0.1
782 1 0.275 0.275 0.1
468 1 0.3 0.225 0.075
507 1 0.325 0.25 0.075
508 1 0.3 0.275 0.075
746 1 0.325 0.225 0.1
785 1 0.3 0.25 0.1
786 1 0.325 0.275 0.1
472 1 0.35 0.225 0.075
511 1 0.375 0.25 0.075
512 1 0.35 0.275 0.075
750 1 0.375 0.225 0.1
789 1 0.35 0.25 0.1
790 1 0.375 0.275 0.1
476 1 0.4 0.225 0.075
515 1 0.425 0.25 0.075
516 1 0.4 0.275 0.075
754 1 0.425 0.225 0.1
793 1 0.4 0.25 0.1
794 1 0.425 0.275 0.1
480 1 0.45 0.225 0.075
519 1 0.475 0.25 0.075
520 1 0.45 0.275 0.075
758 1 0.475 0.225 0.1
797 1 0.45 0.25 0.1
798 1 0.475 0.275 0.1
523 1 0.025 0.3 0.075
524 1 0 0.325 0.075
528 1 0.05 0.325 0.075
801 1 0 0.3 0.1
802 1 0.025 0.325 0.1
805 1 0.05 0.3 0.1
527 1 0.075 0.3 0.075
532 1 0.1 0.325 0.075
806 1 0.075 0.325 0.1
809 1 0.1 0.3 0.1
531 1 0.125 0.3 0.075
536 1 0.15 0.325 0.075
810 1 0.125 0.325 0.1
813 1 0.15 0.3 0.1
535 1 0.175 0.3 0.075
540 1 0.2 0.325 0.075
814 1 0.175 0.325 0.1
817 1 0.2 0.3 0.1
539 1 0.225 0.3 0.075
543 1 0.275 0.3 0.075
544 1 0.25 0.325 0.075
818 1 0.225 0.325 0.1
821 1 0.25 0.3 0.1
822 1 0.275 0.325 0.1
547 1 0.325 0.3 0.075
548 1 0.3 0.325 0.075
825 1 0.3 0.3 0.1
826 1 0.325 0.325 0.1
551 1 0.375 0.3 0.075
552 1 0.35 0.325 0.075
829 1 0.35 0.3 0.1
830 1 0.375 0.325 0.1
555 1 0.425 0.3 0.075
556 1 0.4 0.325 0.075
833 1 0.4 0.3 0.1
834 1 0.425 0.325 0.1
559 1 0.475 0.3 0.075
560 1 0.45 0.325 0.075
837 1 0.45 0.3 0.1
838 1 0.475 0.325 0.1
563 1 0.025 0 0.125
564 1 0 0.025 0.125
568 1 0.05 0.025 0.125
603 1 0.025 0.05 0.125
841 1 0 0 0.15
842 1 0.025 0.025 0.15
843 1 0.025 0 0.175
844 1 0 0.025 0.175
845 1 0.05 0 0.15
848 1 0.05 0.025 0.175
881 1 0 0.05 0.15
883 1 0.025 0.05 0.175
885 1 0.05 0.05 0.15
567 1 0.075 0 0.125
572 1 0.1 0.025 0.125
607 1 0.075 0.05 0.125
846 1 0.075 0.025 0.15
847 1 0.075 0 0.175
849 1 0.1 0 0.15
852 1 0.1 0.025 0.175
887 1 0.075 0.05 0.175
889 1 0.1 0.05 0.15
571 1 0.125 0 0.125
576 1 0.15 0.025 0.125
611 1 0.125 0.05 0.125
850 1 0.125 0.025 0.15
851 1 0.125 0 0.175
853 1 0.15 0 0.15
856 1 0.15 0.025 0.175
891 1 0.125 0.05 0.175
893 1 0.15 0.05 0.15
575 1 0.175 0 0.125
580 1 0.2 0.025 0.125
615 1 0.175 0.05 0.125
854 1 0.175 0.025 0.15
855 1 0.175 0 0.175
857 1 0.2 0 0.15
860 1 0.2 0.025 0.175
895 1 0.175 0.05 0.175
897 1 0.2 0.05 0.15
579 1 0.225 0 0.125
583 1 0.275 0 0.125
584 1 0.25 0.025 0.125
619 1 0.225 0.05 0.125
623 1 0.275 0.05 0.125
858 1 0.225 0.025 0.15
859 1 0.225 0 0.175
861 1 0.25 0 0.15
862 1 0.275 0.025 0.15
863 1 0.275 0 0.175
864 1 0.25 0.025 0.175
899 1 0.225 0.05 0.175
901 1 0.25 0.05 0.15
903 1 0.275 0.05 0.175
587 1 0.325 0 0.125
588 1 0.3 0.025 0.125
627 1 0.325 0.05 0.125
865 1 0.3 0 0.15
866 1 0.325 0.025 0.15
867 1 0.325 0 0.175
868 1 0.3 0.025 0.175
905 1 0.3 0.05 0.15
907 1 0.325 0.05 0.175
591 1 0.375 0 0.125
592 1 0.35 0.025 0.125
631 1 0.375 0.05 0.125
869 1 0.35 0 0.15
870 1 0.375 0.025 0.15
871 1 0.375 0 0.175
872 1 0.35 0.025 0.175
909 1 0.35 0.05 0.15
911 1 0.375 0.05 0.175
595 1 0.425 0 0.125
596 1 0.4 0.025 0.125
635 1 0.425 0.05 0.125
873 1 0.4 0 0.15
874 1 0.425 0.025 0.15
875 1 0.425 0 0.175
876 1 0.4 0.025 0.175
913 1 0.4 0.05 0.15
915 1 0.425 0.05 0.175
599 1 0.475 0 0.125
600 1 0.45 0.025 0.125
639 1 0.475 0.05 0.125
877 1 0.45 0 0.15
878 1 0.475 0.025 0.15
879 1 0.475 0 0.175
880 1 0.45 0.025 0.175
917 1 0.45 0.05 0.15
919 1 0.475 0.05 0.175
604 1 0 0.075 0.125
608 1 0.05 0.075 0.125
643 1 0.025 0.1 0.125
882 1 0.025 0.075 0.15
884 1 0 0.075 0.175
888 1 0.05 0.075 0.175
921 1 0 0.1 0.15
923 1 0.025 0.1 0.175
925 1 0.05 0.1 0.15
612 1 0.1 0.075 0.125
647 1 0.075 0.1 0.125
886 1 0.075 0.075 0.15
892 1 0.1 0.075 0.175
927 1 0.075 0.1 0.175
929 1 0.1 0.1 0.15
616 1 0.15 0.075 0.125
651 1 0.125 0.1 0.125
890 1 0.125 0.075 0.15
896 1 0.15 0.075 0.175
931 1 0.125 0.1 0.175
933 1 0.15 0.1 0.15
620 1 0.2 0.075 0.125
655 1 0.175 0.1 0.125
894 1 0.175 0.075 0.15
900 1 0.2 0.075 0.175
935 1 0.175 0.1 0.175
937 1 0.2 0.1 0.15
624 1 0.25 0.075 0.125
659 1 0.225 0.1 0.125
663 1 0.275 0.1 0.125
898 1 0.225 0.075 0.15
902 1 0.275 0.075 0.15
904 1 0.25 0.075 0.175
939 1 0.225 0.1 0.175
941 1 0.25 0.1 0.15
943 1 0.275 0.1 0.175
628 1 0.3 0.075 0.125
667 1 0.325 0.1 0.125
906 1 0.325 0.075 0.15
908 1 0.3 0.075 0.175
945 1 0.3 0.1 0.15
947 1 0.325 0.1 0.175
632 1 0.35 0.075 0.125
671 1 0.375 0.1 0.125
910 1 0.375 0.075 0.15
912 1 0.35 0.075 0.175
949 1 0.35 0.1 0.15
951 1 0.375 0.1 0.175
636 1 0.4 0.075 0.125
675 1 0.425 0.1 0.125
914 1 0.425 0.075 0.15
916 1 0.4 0.075 0.175
953 1 0.4 0.1 0.15
955 1 0.425 0.1 0.175
640 1 0.45 0.075 0.125
679 1 0.475 0.1 0.125
918 1 0.475 0.075 0.15
920 1 0.45 0.075 0.175
957 1 0.45 0.1 0.15
959 1 0.475 0.1 0.175
644 1 0 0.125 0.125
648 1 0.05 0.125 0.125
683 1 0.025 0.15 0.125
922 1 0.025 0.125 0.15
924 1 0 0.125 0.175
928 1 0.05 0.125 0.175
961 1 0 0.15 0.15
963 1 0.025 0.15 0.175
965 1 0.05 0.15 0.15
652 1 0.1 0.125 0.125
687 1 0.075 0.15 0.125
926 1 0.075 0.125 0.15
932 1 0.1 0.125 0.175
967 1 0.075 0.15 0.175
969 1 0.1 0.15 0.15
656 1 0.15 0.125 0.125
691 1 0.125 0.15 0.125
930 1 0.125 0.125 0.15
936 1 0.15 0.125 0.175
971 1 0.125 0.15 0.175
973 1 0.15 0.15 0.15
660 1 0.2 0.125 0.125
695 1 0.175 0.15 0.125
934 1 0.175 0.125 0.15
940 1 0.2 0.125 0.175
975 1 0.175 0.15 0.175
977 1 0.2 0.15 0.15
664 1 0.25 0.125 0.125
699 1 0.225 0.15 0.125
703 1 0.275 0.15 0.125
938 1 0.225 0.125 0.15
942 1 0.275 0.125 0.15
944 1 0.25 0.125 0.175
979 1 0.225 0.15 0.175
981 1 0.25 0.15 0.15
983 1 0.275 0.15 0.175
668 1 0.3 0.125 0.125
707 1 0.325 0.15 0.125
946 1 0.325 0.125 0.15
948 1 0.3 0.125 0.175
985 1 0.3 0.15 0.15
987 1 0.325 0.15 0.175
672 1 0.35 0.125 0.125
711 1 0.375 0.15 0.125
950 1 0.375 0.125 0.15
952 1 0.35 0.125 0.175
989 1 0.35 0.15 0.15
991 1 0.375 0.15 0.175
676 1 0.4 0.125 0.125
715 1 0.425 0.15 0.125
954 1 0.425 0.125 0.15
956 1 0.4 0.125 0.175
993 1 0.4 0.15 0.15
995 1 0.425 0.15 0.175
680 1 0.45 0.125 0.125
719 1 0.475 0.15 0.125
958 1 0.475 0.125 0.15
960 1 0.45 0.125 0.175
997 1 0.45 0.15 0.15
999 1 0.475 0.15 0.175
684 1 0 0.175 0.125
688 1 0.05 0.175 0.125
723 1 0.025 0.2 0.125
962 1 0.025 0.175 0.15
964 1 0 0.175 0.175
968 1 0.05 0.175 0.175
1001 1 0 0.2 0.15
1003 1 0.025 0.2 0.175
1005 1 0.05 0.2 0.15
692 1 0.1 0.175 0.125
727 1 0.075 0.2 0.125
966 1 0.075 0.175 0.15
972 1 0.1 0.175 0.175
1007 1 0.075 0.2 0.175
1009 1 0.1 0.2 0.15
696 1 0.15 0.175 0.125
731 1 0.125 0.2 0.125
970 1 0.125 0.175 0.15
976 1 0.15 0.175 0.175
1011 1 0.125 0.2 0.175
1013 1 0.15 0.2 0.15
700 1 0.2 0.175 0.125
735 1 0.175 0.2 0.125
974 1 0.175 0.175 0.15
980 1 0.2 0.175 0.175
1015 1 0.175 0.2 0.175
1017 1 0.2 0.2 0.15
704 1 0.25 0.175 0.125
739 1 0.225 0.2 0.125
743 1 0.275 0.2 0.125
978 1 0.225 0.175 0.15
982 1 0.275 0.175 0.15
984 1 0.25 0.175 0.175
1019 1 0.225 0.2 0.175
1021 1 0.25 0.2 0.15
1023 1 0.275 0.2 0.175
708 1 0.3 0.175 0.125
747 1 0.325 0.2 0.125
986 1 0.325 0.175 0.15
988 1 0.3 0.175 0.175
1025 1 0.3 0.2 0.15
1027 1 0.325 0.2 0.175
712 1 0.35 0.175 0.125
751 1 0.375 0.2 0.125
990 1 0.375 0.175 0.15
992 1 0.35 0.175 0.175
1029 1 0.35 0.2 0.15
1031 1 0.375 0.2 0.175
716 1 0.4 0.175 0.125
755 1 0.425 0.2 0.125
994 1 0.425 0.175 0.15
996 1 0.4 0.175 0.175
1033 1 0.4 0.2 0.15
1035 1 0.425 0.2 0.175
720 1 0.45 0.175 0.125
759 1 0.475 0.2 0.125
998 1 0.475 0.175 0.15
1000 1 0.45 0.175 0.175
1037 1 0.45 0.2 0.15
1039 1 0.475 0.2 0.175
724 1 0 0.225 0.125
728 1 0.05 0.225 0.125
763 1 0.025 0.25 0.125
764 1 0 0.275 0.125
768 1 0.05 0.275 0.125
1002 1 0.025 0.225 0.15
1004 1 0 0.225 0.175
1008 1 0.05 0.225 0.175
1041 1 0 0.25 0.15
1042 1 0.025 0.275 0.15
1043 1 0.025 0.25 0.175
1044 1 0 0.275 0.175
1045 1 0.05 0.25 0.15
1048 1 0.05 0.275 0.175
732 1 0.1 0.225 0.125
767 1 0.075 0.25 0.125
772 1 0.1 0.275 0.125
1006 1 0.075 0.225 0.15
1012 1 0.1 0.225 0.175
1046 1 0.075 0.275 0.15
1047 1 0.075 0.25 0.175
1049 1 0.1 0.25 0.15
1052 1 0.1 0.275 0.175
736 1 0.15 0.225 0.125
771 1 0.125 0.25 0.125
776 1 0.15 0.275 0.125
1010 1 0.125 0.225 0.15
1016 1 0.15 0.225 0.175
1050 1 0.125 0.275 0.15
1051 1 0.125 0.25 0.175
1053 1 0.15 0.25 0.15
1056 1 0.15 0.275 0.175
740 1 0.2 0.225 0.125
775 1 0.175 0.25 0.125
780 1 0.2 0.275 0.125
1014 1 0.175 0.225 0.15
1020 1 0.2 0.225 0.175
1054 1 0.175 0.275 0.15
1055 1 0.175 0.25 0.175
1057 1 0.2 0.25 0.15
1060 1 0.2 0.275 0.175
744 1 0.25 0.225 0.125
779 1 0.225 0.25 0.125
783 1 0.275 0.25 0.125
784 1 0.25 0.275 0.125
1018 1 0.225 0.225 0.15
1022 1 0.275 0.225 0.15
1024 1 0.25 0.225 0.175
1058 1 0.225 0.275 0.15
1059 1 0.225 0.25 0.175
1061 1 0.25 0.25 0.15
1062 1 0.275 0.275 0.15
1063 1 0.275 0.25 0.175
1064 1 0.25 0.275 0.175
748 1 0.3 0.225 0.125
787 1 0.325 0.25 0.125
788 1 0.3 0.275 0.125
1026 1 0.325 0.225 0.15
1028 1 0.3 0.225 0.175
1065 1 0.3 0.25 0.15
1066 1 0.325 0.275 0.15
1067 1 0.325 0.25 0.175
1068 1 0.3 0.275 0.175
752 1 0.35 0.225 0.125
791 1 0.375 0.25 0.125
792 1 0.35 0.275 0.125
1030 1 0.375 0.225 0.15
1032 1 0.35 0.225 0.175
1069 1 0.35 0.25 0.15
1070 1 0.375 0.275 0.15
1071 1 0.375 0.25 0.175
1072 1 0.35 0.275 0.175
756 1 0.4 0.225 0.125
795 1 0.425 0.25 0.125
796 1 0.4 0.275 0.125
1034 1 0.425 0.225 0.15
1036 1 0.4 0.225 0.175
1073 1 0.4 0.25 0.15
1074 1 0.425 0.275 0.15
1075 1 0.425 0.25 0.175
1076 1 0.4 0.275 0.175
760 1 0.45 0.225 0.125
799 1 0.475 0.25 0.125
800 1 0.45 0.275 0.125
1038 1 0.475 0.225 0.15
1040 1 0.45 0.225 0.175
1077 1 0.45 0.25 0.15
1078 1 0.475 0.275 0.15
1079 1 0.475 0.25 0.175
1080 1 0.45 0.275 0.175
803 1 0.025 0.3 0.125
804 1 0 0.325 0.125
808 1 0.05 0.325 0.125
1081 1 0 0.3 0.15
1082 1 0.025 0.325 0.15
1083 1 0.025 0.3 0.175
1084 1 0 0.325 0.175
1085 1 0.05 0.3 0.15
1088 1 0.05 0.325 0.175
807 1 0.075 0.3 0.125
812 1 0.1 0.325 0.125
1086 1 0.075 0.325 0.15
1087 1 0.075 0.3 0.175
1089 1 0.1 0.3 0.15
1092 1 0.1 0.325 0.175
811 1 0.125 0.3 0.125
816 1 0.15 0.325 0.125
1090 1 0.125 0.325 0.15
1091 1 0.125 0.3 0.175
1093 1 0.15 0.3 0.15
1096 1 0.15 0.325 0.175
815 1 0.175 0.3 0.125
820 1 0.2 0.325 0.125
1094 1 0.175 0.325 0.15
1095 1 0.175 0.3 0.175
1097 1 0.2 0.3 0.15
1100 1 0.2 0.325 0.175
819 1 0.225 0.3 0.125
823 1 0.275 0.3 0.125
824 1 0.25 0.325 0.125
1098 1 0.225 0.325 0.15
1099 1 0.225 0.3 0.175
1101 1 0.25 0.3 0.15
1102 1 0.275 0.325 0.15
1103 1 0.275 0.3 0.175
1104 1 0.25 0.325 0.175
827 1 0.325 0.3 0.125
828 1 0.3 0.325 0.125
1105 1 0.3 0.3 0.15
1106 1 0.325 0.325 0.15
1107 1 0.325 0.3 0.175
1108 1 0.3 0.325 0.175
831 1 0.375 0.3 0.125
832 1 0.35 0.325 0.125
1109 1 0.35 0.3 0.15
1110 1 0.375 0.325 0.15
1111 1 0.375 0.3 0.175
1112 1 0.35 0.325 0.175
835 1 0.425 0.3 0.125
836 1 0.4 0.325 0.125
1113 1 0.4 0.3 0.15
1114 1 0.425 0.325 0.15
1115 1 0.425 0.3 0.175
1116 1 0.4 0.325 0.175
839 1 0.475 0.3 0.125
840 1 0.45 0.325 0.125
1117 1 0.45 0.3 0.15
1118 1 0.475 0.325 0.15
1119 1 0.475 0.3 0.175
1120 1 0.45 0.325 0.175
1121 1 0 0 0.2
1122 1 0.025 0.025 0.2
1123 1 0.025 0 0.225
1124 1 0 0.025 0.225
1125 1 0.05 0 0.2
1128 1 0.05 0.025 0.225
1161 1 0 0.05 0.2
1163 1 0.025 0.05 0.225
1165 1 0.05 0.05 0.2
1126 1 0.075 0.025 0.2
1127 1 0.075 0 0.225
1129 1 0.1 0 0.2
1132 1 0.1 0.025 0.225
1167 1 0.075 0.05 0.225
1169 1 0.1 0.05 0.2
1130 1 0.125 0.025 0.2
1131 1 0.125 0 0.225
1133 1 0.15 0 0.2
1136 1 0.15 0.025 0.225
1171 1 0.125 0.05 0.225
1173 1 0.15 0.05 0.2
1134 1 0.175 0.025 0.2
1135 1 0.175 0 0.225
1137 1 0.2 0 0.2
1140 1 0.2 0.025 0.225
1175 1 0.175 0.05 0.225
1177 1 0.2 0.05 0.2
1138 1 0.225 0.025 0.2
1139 1 0.225 0 0.225
1141 1 0.25 0 0.2
1142 1 0.275 0.025 0.2
1143 1 0.275 0 0.225
1144 1 0.25 0.025 0.225
1179 1 0.225 0.05 0.225
1181 1 0.25 0.05 0.2
1183 1 0.275 0.05 0.225
1145 1 0.3 0 0.2
1146 1 0.325 0.025 0.2
1147 1 0.325 0 0.225
1148 1 0.3 0.025 0.225
1185 1 0.3 0.05 0.2
1187 1 0.325 0.05 0.225
1149 1 0.35 0 0.2
1150 1 0.375 0.025 0.2
1151 1 0.375 0 0.225
1152 1 0.35 0.025 0.225
1189 1 0.35 0.05 0.2
1191 1 0.375 0.05 0.225
1153 1 0.4 0 0.2
1154 1 0.425 0.025 0.2
1155 1 0.425 0 0.225
1156 1 0.4 0.025 0.225
1193 1 0.4 0.05 0.2
1195 1 0.425 0.05 0.225
1157 1 0.45 0 0.2
1158 1 0.475 0.025 0.2
1159 1 0.475 0 0.225
1160 1 0.45 0.025 0.225
1197 1 0.45 0.05 0.2
1199 1 0.475 0.05 0.225
1162 1 0.025 0.075 0.2
1164 1 0 0.075 0.225
1168 1 0.05 0.075 0.225
1201 1 0 0.1 0.2
1203 1 0.025 0.1 0.225
1205 1 0.05 0.1 0.2
1166 1 0.075 0.075 0.2
1172 1 0.1 0.075 0.225
1207 1 0.075 0.1 0.225
1209 1 0.1 0.1 0.2
1170 1 0.125 0.075 0.2
1176 1 0.15 0.075 0.225
1211 1 0.125 0.1 0.225
1213 1 0.15 0.1 0.2
1174 1 0.175 0.075 0.2
1180 1 0.2 0.075 0.225
1215 1 0.175 0.1 0.225
1217 1 0.2 0.1 0.2
1178 1 0.225 0.075 0.2
1182 1 0.275 0.075 0.2
1184 1 0.25 0.075 0.225
1219 1 0.225 0.1 0.225
1221 1 0.25 0.1 0.2
1223 1 0.275 0.1 0.225
1186 1 0.325 0.075 0.2
1188 1 0.3 0.075 0.225
1225 1 0.3 0.1 0.2
1227 1 0.325 0.1 0.225
1190 1 0.375 0.075 0.2
1192 1 0.35 0.075 0.225
1229 1 0.35 0.1 0.2
1231 1 0.375 0.1 0.225
1194 1 0.425 0.075 0.2
1196 1 0.4 0.075 0.225
1233 1 0.4 0.1 0.2
1235 1 0.425 0.1 0.225
1198 1 0.475 0.075 0.2
1200 1 0.45 0.075 0.225
1237 1 0.45 0.1 0.2
1239 1 0.475 0.1 0.225
1202 1 0.025 0.125 0.2
1204 1 0 0.125 0.225
1208 1 0.05 0.125 0.225
1241 1 0 0.15 0.2
1243 1 0.025 0.15 0.225
1245 1 0.05 0.15 0.2
1206 1 0.075 0.125 0.2
1212 1 0.1 0.125 0.225
1247 1 0.075 0.15 0.225
1249 1 0.1 0.15 0.2
1210 1 0.125 0.125 0.2
1216 1 0.15 0.125 0.225
1251 1 0.125 0.15 0.225
1253 1 0.15 0.15 0.2
1214 1 0.175 0.125 0.2
1220 1 0.2 0.125 0.225
1255 1 0.175 0.15 0.225
1257 1 0.2 0.15 0.2
1218 1 0.225 0.125 0.2
1222 1 0.275 0.125 0.2
1224 1 0.25 0.125 0.225
1259 1 0.225 0.15 0.225
1261 1 0.25 0.15 0.2
1263 1 0.275 0.15 0.225
1226 1 0.325 0.125 0.2
1228 1 0.3 0.125 0.225
1265 1 0.3 0.15 0.2
1267 1 0.325 0.15 0.225
1230 1 0.375 0.125 0.2
1232 1 0.35 0.125 0.225
1269 1 0.35 0.15 0.2
1271 1 0.375 0.15 0.225
1234 1 0.425 0.125 0.2
1236 1 0.4 0.125 0.225
1273 1 0.4 0.15 0.2
1275 1 0.425 0.15 0.225
1238 1 0.475 0.125 0.2
1240 1 0.45 0.125 0.225
1277 1 0.45 0.15 0.2
1279 1 0.475 0.15 0.225
1242 1 0.025 0.175 0.2
1244 1 0 0.175 0.225
1248 1 0.05 0.175 0.225
1281 1 0 0.2 0.2
1283 1 0.025 0.2 0.225
1285 1 0.05 0.2 0.2
1246 1 0.075 0.175 0.2
1252 1 0.1 0.175 0.225
1287 1 0.075 0.2 0.225
1289 1 0.1 0.2 0.2
1250 1 0.125 0.175 0.2
1256 1 0.15 0.175 0.225
1291 1 0.125 0.2 0.225
1293 1 0.15 0.2 0.2
1254 1 0.175 0.175 0.2
1260 1 0.2 0.175 0.225
1295 1 0.175 0.2 0.225
1297 1 0.2 0.2 0.2
1258 1 0.225 0.175 0.2
1262 1 0.275 0.175 0.2
1264 1 0.25 0.175 0.225
1299 1 0.225 0.2 0.225
1301 1 0.25 0.2 0.2
1303 1 0.275 0.2 0.225
1266 1 0.325 0.175 0.2
1268 1 0.3 0.175 0.225
1305 1 0.3 0.2 0.2
1307 1 0.325 0.2 0.225
1270 1 0.375 0.175 0.2
1272 1 0.35 0.175 0.225
1309 1 0.35 0.2 0.2
1311 1 0.375 0.2 0.225
1274 1 0.425 0.175 0.2
1276 1 0.4 0.175 0.225
1313 1 0.4 0.2 0.2
1315 1 0.425 0.2 0.225
1278 1 0.475 0.175 0.2
1280 1 0.45 0.175 0.225
1317 1 0.45 0.2 0.2
1319 1 0.475 0.2 0.225
1282 1 0.025 0.225 0.2
1284 1 0 0.225 0.225
1288 1 0.05 0.225 0.225
1321 1 0 0.25 0.2
1322 1 0.025 0.275 0.2
1323 1 0.025 0.25 0.225
1324 1 0 0.275 0.225
1325 1 0.05 0.25 0.2
1328 1 0.05 0.275 0.225
1286 1 0.075 0.225 0.2
1292 1 0.1 0.225 0.225
1326 1 0.075 0.275 0.2
1327 1 0.075 0.25 0.225
1329 1 0.1 0.25 0.2
1332 1 0.1 0.275 0.225
1290 1 0.125 0.225 0.2
1296 1 0.15 0.225 0.225
1330 1 0.125 0.275 0.2
1331 1 0.125 0.25 0.225
1333 1 0.15 0.25 0.2
1336 1 0.15 0.275 0.225
1294 1 0.175 0.225 0.2
1300 1 0.2 0.225 0.225
1334 1 0.175 0.275 0.2
1335 1 0.175 0.25 0.225
1337 1 0.2 0.25 0.2
1340 1 0.2 0.275 0.225
1298 1 0.225 0.225 0.2
1302 1 0.275 0.225 0.2
1304 1 0.25 0.225 0.225
1338 1 0.225 0.275 0.2
1339 1 0.225 0.25 0.225
1341 1 0.25 0.25 0.2
1342 1 0.275 0.275 0.2
1343 1 0.275 0.25 0.225
1344 1 0.25 0.275 0.225
1306 1 0.325 0.225 0.2
1308 1 0.3 0.225 0.225
1345 1 0.3 0.25 0.2
1346 1 0.325 0.275 0.2
1347 1 0.325 0.25 0.225
1348 1 0.3 0.275 0.225
1310 1 0.375 0.225 0.2
1312 1 0.35 0.225 0.225
1349 1 0.35 0.25 0.2
1350 1 0.375 0.275 0.2
1351 1 0.375 0.25 0.225
1352 1 0.35 0.275 0.225
1314 1 0.425 0.225 0.2
1316 1 0.4 0.225 0.225
1353 1 0.4 0.25 0.2
1354 1 0.425 0.275 0.2
1355 1 0.425 0.25 0.225
1356 1 0.4 0.275 0.225
1318 1 0.475 0.225 0.2
1320 1 0.45 0.225 0.225
1357 1 0.45 0.25 0.2
1358 1 0.475 0.275 0.2
1359 1 0.475 0.25 0.225
1360 1 0.45 0.275 0.225
1361 1 0 0.3 0.2
1362 1 0.025 0.325 0.2
1363 1 0.025 0.3 0.225
1364 1 0 0.325 0.225
1365 1 0.05 0.3 0.2
1368 1 0.05 0.325 0.225
1366 1 0.075 0.325 0.2
1367 1 0.075 0.3 0.225
1369 1 0.1 0.3 0.2
1372 1 0.1 0.325 0.225
1370 1 0.125 0.325 0.2
1371 1 0.125 0.3 0.225
1373 1 0.15 0.3 0.2
1376 1 0.15 0.325 0.225
1374 1 0.175 0.325 0.2
1375 1 0.175 0.3 0.225
1377 1 0.2 0.3 0.2
1380 1 0.2 0.325 0.225
1378 1 0.225 0.325 0.2
1379 1 0.225 0.3 0.225
1381 1 0.25 0.3 0.2
1382 1 0.275 0.325 0.2
1383 1 0.275 0.3 0.225
1384 1 0.25 0.325 0.225
1385 1 0.3 0.3 0.2
1386 1 0.325 0.325 0.2
1387 1 0.325 0.3 0.225
1388 1 0.3 0.325 0.225
1389 1 0.35 0.3 0.2
1390 1 0.375 0.325 0.2
1391 1 0.375 0.3 0.225
1392 1 0.35 0.325 0.225
1393 1 0.4 0.3 0.2
1394 1 0.425 0.325 0.2