ITEM: TIMESTEP
10000
ITEM: NUMBER OF ATOMS
32256
ITEM: BOX BOUNDS pp pp pp
0 71.8466
0 71.1097
0 75.4232
ITEM: ATOMS id type xs ys zs vx vy vz fx fy fz 
1020 1 0.0511899 0.030762 -0.00163445 0.911828 0.356089 2.20802 0.422966 0.151368 0.496306 
1049 1 0.0161038 0.0308651 0.00210322 -4.34992 0.607714 0.146341 0.741967 -0.0571471 -0.909565 
1052 1 0.0536619 0.0519718 0.027417 -0.0376493 2.31488 -1.97372 -0.0179582 -0.0325744 -0.139999 
1053 1 0.0185404 0.0520065 0.0286728 -1.45392 2.11488 0.631467 -0.069272 -0.210548 -0.0355026 
1209 1 0.0355 2.38109e-05 0.000120373 -1.5164 1.68747 1.94239 -0.174294 -0.266944 -0.132824 
1239 1 -0.000627228 -0.000164518 -0.00130895 2.94015 2.25443 0.393139 0.174288 0.261594 0.499272 
1240 1 -0.000471604 0.0201525 0.0285528 1.89169 -0.846239 -0.698459 0.331895 0.211101 -0.0201887 
1241 1 0.0351501 0.0204367 0.0281714 -6.09218 -1.54714 0.120501 0.565568 -0.0266831 -0.109866 
1019 1 0.0884395 0.02934 0.000545232 -0.346973 -0.167608 -2.43842 0.450202 0.472741 -0.544357 
1024 1 0.0908106 0.0527163 0.0288448 0.501513 1.66432 -1.57896 -0.814022 -0.321244 -0.684149 
1187 1 0.109132 -0.00086739 0.000694345 -1.44226 0.97786 -0.438283 -0.92933 0.133473 -0.0978016 
1210 1 0.071844 -0.00105393 -4.62948e-05 1.19741 2.06419 -0.60196 0.0376221 0.194912 0.0561347 
1211 1 0.0738178 0.0202357 0.0273687 3.36529 -0.407927 -1.96663 -0.705162 -0.0477376 0.371802 
1212 1 0.109114 0.0207886 0.0279748 0.89615 -1.51529 0.461705 -0.886775 -0.0459737 -0.315988 
997 1 0.161119 0.0292206 0.000736012 -1.16067 1.59358 2.81442 0.253704 0.216023 -0.310841 
998 1 0.125289 0.0311708 0.000273893 -1.03033 -1.75121 -1.42956 -0.450356 -0.34918 0.0127508 
1002 1 0.160469 0.0522804 0.0272046 0.435677 0.410164 -0.47717 -0.200321 0.0251549 0.19154 
1023 1 0.125231 0.0525893 0.0271463 0.288955 3.01532 -0.479611 0.14642 -0.0382684 0.637087 
1188 1 0.142519 -0.000396585 -0.000597618 2.21114 0.63043 0.73785 0.776013 0.276135 0.109949 
1189 1 0.142626 0.0218119 0.0273148 2.21553 -0.598007 -1.56021 0.757965 -0.183999 0.355772 
984 1 0.19737 0.0304085 0.000379048 3.98211 1.81433 0.259672 -0.0123659 -0.121558 -0.29287 
1001 1 0.195648 0.0514005 0.0285294 -1.40493 1.33154 -0.360821 0.850704 0.209819 -0.588043 
1173 1 0.178996 -0.00134242 -0.00167351 0.0971019 0.0447701 2.0613 -0.192225 0.149369 0.0520822 
1174 1 0.214012 -0.000862853 0.000107994 -2.39131 2.83044 0.562876 0.0755473 0.0577934 -0.19812 
1175 1 0.216 0.0187271 0.0276548 0.298714 0.747601 -0.0590629 -0.0333439 1.16482 -0.0435534 
1190 1 0.180098 0.020936 0.0277863 -3.06858 -2.59754 0.337014 -0.167251 -7.02896e-05 -0.348191 
978 1 0.265569 0.0321619 -6.00326e-05 -0.161123 -0.292816 4.17792 1.24327 -0.3519 -0.3423 
983 1 0.232875 0.0323006 -0.000811123 -1.20439 1.51129 -0.728949 -0.656493 -0.73219 0.353435 
987 1 0.268825 0.0524323 0.0281806 2.51364 -0.898935 -2.00818 -0.305462 -0.167043 0.0535792 
988 1 0.23254 0.0516525 0.0272089 -2.15883 1.68664 -0.307397 -0.284837 0.087304 0.329852 
1167 1 0.250193 -0.000640095 0.000110787 2.52668 0.863005 1.95976 -0.180288 0.238258 0.0288455 
1176 1 0.251711 0.0220981 0.0276475 2.32251 0.496862 0.587502 -0.530589 -0.529346 0.313056 
977 1 0.301608 0.0311248 -0.000165359 4.73921 2.25228 -1.40262 0.0174822 0.156617 0.108626 
981 1 0.303118 0.0497037 0.0284679 -0.967569 -2.72877 2.11899 -0.0988055 0.58631 -0.102018 
1166 1 0.320098 0.00236144 -0.000565355 -2.01489 -1.06923 1.91322 0.160255 -0.273504 0.0587194 
1168 1 0.283803 -0.000352047 0.000418382 1.38522 1.47646 0.04626 0.298255 0.700077 -0.0484853 
1169 1 0.285403 0.0203797 0.0283518 -3.10422 1.76307 -0.00904717 0.00550734 -0.190825 -0.18496 
1170 1 0.320963 0.0191434 0.0281626 -2.17666 -0.830213 -2.76597 -0.0977003 0.237336 -0.163018 
843 1 0.0547227 0.0922335 -0.000712828 -0.471323 2.4175 1.37514 -0.450173 0.334456 0.145328 
844 1 0.0185985 0.0945161 0.00101477 -0.960318 -0.428909 -2.61886 0.108169 -0.591793 -1.11536 
1048 1 -9.57189e-05 0.0613385 0.000511315 5.17004 -1.15668 0.906385 0.0270699 0.234992 -0.35844 
1050 1 0.0342747 0.0627293 -9.24043e-05 1.01179 -2.11233 -1.69831 0.466776 -0.471303 -0.0440675 
1051 1 0.0348837 0.0841844 0.0260831 -3.03357 -2.5854 -2.84961 0.680286 -0.504665 1.05526 
1085 1 0.000376377 0.0810922 0.0277229 1.27674 -1.38527 -3.20839 -0.271463 0.689099 0.66557 
818 1 0.0893105 0.0937505 -0.000656904 1.49578 3.90229 0.950986 -0.600795 -0.0697064 -0.157802 
1018 1 0.0716912 0.0610264 0.000227588 1.24139 2.58782 -0.520873 -0.132993 -0.115675 0.320224 
1021 1 0.10744 0.061884 0.000794824 0.684418 0.167847 3.04111 -0.732744 -0.188095 -0.599504 
1022 1 0.105605 0.0836665 0.0258813 3.02106 -0.957557 -2.94284 0.714995 0.0276286 0.894341 
1054 1 0.0709777 0.0839122 0.0272771 0.945133 -1.88036 -2.01578 -0.108905 -0.687027 0.00545134 
800 1 0.159028 0.0925796 -0.00121515 2.27547 1.74381 2.7508 0.630381 -0.0640193 0.0666551 
817 1 0.123625 0.0937761 -0.000852379 0.430015 -2.27025 0.199407 0.488973 -0.237146 0.0681395 
996 1 0.141082 0.0617502 -0.000311695 -1.27789 -0.116941 4.16202 1.01713 0.464895 0.0943813 
1025 1 0.141195 0.0835258 0.0263477 -1.88546 -0.27318 -2.63233 0.166136 -0.0346394 0.485472 
799 1 0.19498 0.0924953 -0.000681314 -2.66664 -1.05663 -1.15785 -0.12289 0.00362042 -0.210397 
982 1 0.214495 0.0611991 -0.000968688 -0.941495 0.844088 1.35645 -0.234804 0.363157 0.552523 
999 1 0.178108 0.0604102 -0.000406318 -1.96479 -0.750381 -0.219157 -0.0107104 0.389525 -0.0202363 
1000 1 0.178161 0.0826603 0.0269776 0.433283 0.274178 1.91182 -0.435328 -0.00234403 0.0222787 
1003 1 0.212771 0.0826967 0.0279033 -0.993854 -4.15736 -2.06812 0.365608 -0.150235 -0.130155 
789 1 0.266665 0.0948699 -0.000250945 -1.82752 -0.964057 0.85845 0.414451 -0.110823 0.308612 
790 1 0.229645 0.0935543 0.00225805 3.41964 -1.50905 1.68014 0.529903 -0.157149 -0.915674 
985 1 0.250339 0.0631623 0.000796565 4.05067 -0.422172 0.587092 -0.189964 0.232516 -0.603906 
986 1 0.250542 0.0834118 0.0274318 2.24117 3.34012 -0.646242 -0.188662 0.101926 0.358697 
787 1 0.303184 0.0945312 0.000304457 -0.787715 2.11407 2.93845 -0.129447 -0.0222991 0.0182649 
976 1 0.285138 0.0625521 0.000722524 -0.74614 3.08033 -1.15235 0.0631124 0.159981 -0.592901 
979 1 0.319796 0.0630543 0.000152169 0.0563101 -0.267453 1.03574 0.166535 -0.198842 0.303217 
980 1 0.321007 0.0828413 0.0288658 0.285168 -1.48356 -1.17365 -0.0657106 0.138984 -0.332604 
989 1 0.287317 0.0822355 0.0278317 -0.440187 0.101236 1.87393 -0.524922 0.653464 -0.0797405 
640 1 0.0527826 0.156508 0.00117484 1.29713 -1.29974 3.20892 -0.0636942 0.00282803 -0.264841 
669 1 0.0158477 0.15626 -0.00110664 -3.95494 2.36069 0.0121959 0.548587 0.079167 0.458739 
842 1 0.0353857 0.124916 -0.000881383 -1.86836 0.809809 -1.08691 0.291273 0.224516 0.420763 
848 1 0.0543329 0.114199 0.02836 -1.85829 -3.50069 -2.31234 -0.793667 0.122957 -0.887139 
876 1 0.001149 0.123424 0.000431299 4.89687 0.38292 -1.22159 -0.78244 0.790162 -0.0811905 
877 1 -0.00254378 0.145916 0.0278647 2.25547 -0.998554 1.74106 0.414866 -0.145306 -0.128084 
878 1 0.0181942 0.11394 0.0278092 2.83002 -0.109051 3.31181 -0.528794 0.294428 0.425112 
879 1 0.03515 0.144748 0.0283881 -0.338216 -2.5934 -2.23479 -0.47032 0.486589 -0.749968 
639 1 0.0894647 0.155079 0.00131575 -2.20141 -0.771675 -1.42534 -0.31414 0.335974 -0.223121 
816 1 0.106554 0.122766 0.00105984 1.82099 0.412383 4.17173 -0.123143 0.982457 -0.193041 
845 1 0.0700807 0.125247 -9.28027e-05 -0.616861 1.26507 1.85381 0.351534 -0.0710628 0.27663 
846 1 0.0707158 0.146288 0.027756 -0.0850742 1.02022 -1.93724 0.416477 -0.0921228 0.254145 
847 1 0.088885 0.11299 0.0290048 2.09175 0.890424 -2.52477 0.264815 0.969828 -0.557548 
849 1 0.107401 0.146025 0.0290574 -2.28721 0.146372 2.03236 -0.240258 -0.0779331 -0.462929 
617 1 0.161065 0.156707 -0.00110412 1.93086 2.39618 -2.10889 -0.0881246 0.0363301 -0.0341534 
618 1 0.123185 0.154624 -0.00145192 2.82228 -0.55791 -0.422726 0.581501 0.365777 0.168887 
819 1 0.142113 0.124299 -0.00125838 1.32913 -0.785306 -1.16218 0.183772 0.345689 0.139519 
820 1 0.142471 0.145667 0.0270727 -0.803666 -0.563997 3.89356 0.169683 -0.0552508 -0.437184 
821 1 0.160115 0.113149 0.0261312 2.25364 1.74362 -2.38392 0.377819 0.565888 -0.0460444 
822 1 0.125153 0.115922 0.0282228 0.204393 -2.05572 1.48094 -0.316555 -0.606348 -0.177149 
604 1 0.197116 0.157118 -0.00196288 -2.32978 4.68355 4.64441 -0.748697 0.272742 0.283354 
798 1 0.17831 0.125863 -0.00281992 -2.58883 -2.13074 1.66998 -0.0924865 -0.57492 0.738042 
801 1 0.212313 0.125279 0.000641829 0.454054 0.862747 0.702074 0.728836 -0.0544212 -0.964682 
802 1 0.212631 0.145166 0.0258809 0.62768 1.11629 1.99673 0.221739 0.528783 0.353471 
804 1 0.195637 0.113162 0.0250668 0.527971 -1.04262 -1.47279 -0.275899 0.432904 0.894911 
823 1 0.177766 0.146105 0.0275425 -4.13135 0.27961 -0.735435 0.168216 -0.453856 -0.339305 
598 1 0.268534 0.155555 0.00022754 -0.286329 3.37728 -0.0330687 -0.510924 0.146785 -0.411252 
603 1 0.231552 0.157047 -0.000997301 -0.446216 -1.01078 -2.44311 0.0137103 -0.180158 -0.198455 
788 1 0.24861 0.125166 -0.000595356 -3.03786 -0.916407 1.03865 0.060369 -0.118315 0.0483484 
794 1 0.267206 0.115579 0.0286162 2.32375 -1.77088 -3.16699 0.316155 -0.435794 -0.686466 
803 1 0.23311 0.11469 0.0270014 -1.06014 0.865575 1.19786 -0.428387 0.118621 0.488863 
805 1 0.248806 0.146714 0.0257072 -0.857192 -1.87692 0.704461 0.388201 0.100009 0.535739 
597 1 0.304354 0.155009 0.000422859 1.55792 -0.838091 0.984742 -0.166765 0.64131 0.092529 
786 1 0.320543 0.125464 -0.00047866 1.40826 -3.7971 -0.960799 0.303275 -0.5694 0.371621 
791 1 0.285461 0.126404 0.000399017 2.55026 1.42655 -0.283316 -0.206249 -0.816355 0.0121619 
792 1 0.286202 0.146312 0.0291992 1.32868 1.73203 1.15012 -0.452055 0.0722917 -0.411496 
793 1 0.303349 0.11627 0.0283546 -3.17929 -4.46671 -1.58722 -0.110874 -0.53574 -0.0850799 
795 1 0.321774 0.146071 0.0278527 -4.50752 3.21523 -0.806452 -0.197726 0.172432 0.420516 
463 1 0.0548637 0.217625 -0.000891002 1.33411 -0.456791 -0.516708 -0.267913 0.487082 0.390198 
464 1 0.0178618 0.219625 -0.000119819 1.21287 1.80582 -2.9492 0.0361802 -0.754259 -0.105725 
668 1 -0.00176691 0.187399 0.00249509 -0.518858 -0.850891 0.176449 0.321891 -0.277818 -0.724829 
670 1 0.0368351 0.187404 -2.08414e-05 1.71201 -1.68361 1.44388 -0.685423 0.115559 0.160895 
671 1 0.0346401 0.208895 0.0271385 -0.629998 0.579115 -1.00733 0.244747 -0.141178 0.150899 
672 1 0.0531024 0.178032 0.0284681 -3.58846 -0.328927 2.04194 0.149333 -0.0479513 -0.138454 
673 1 0.0177564 0.176325 0.0273579 -0.624623 0.41035 1.29055 -0.167387 0.0759181 0.149061 
705 1 -0.00058052 0.208509 0.0285096 3.04021 1.12616 -0.25114 0.383251 -0.177035 -0.0805648 
438 1 0.0902188 0.217752 -0.000403281 2.30224 2.27633 -1.17689 -0.260116 1.27569 0.301015 
638 1 0.0725667 0.18783 0.000735314 -1.60943 -3.85751 -1.33515 -0.719791 -0.537792 0.355919 
641 1 0.105816 0.188217 -0.000119082 -0.578388 1.79176 1.42336 1.06412 -0.71402 0.275257 
642 1 0.107059 0.209055 0.0286277 -0.563681 -3.75778 -0.168419 -0.2314 -0.50243 -0.849798 
644 1 0.089271 0.177159 0.0288374 -1.85884 -1.59138 -1.19627 -0.0542376 0.065483 -0.334488 
674 1 0.0714382 0.211307 0.0285599 -0.648256 -0.152765 -2.29786 -0.0242939 -1.05926 -0.0185986 
420 1 0.159975 0.219689 -0.000804889 -1.35517 -3.35439 2.25514 -0.282778 0.221793 0.382019 
437 1 0.124783 0.220194 -0.000335987 -1.35505 3.31685 1.51789 -0.0599907 -0.413695 -0.350526 
616 1 0.14189 0.1876 0.000538461 0.0272636 1.25213 0.498768 -0.177053 -0.0656098 -0.251761 
622 1 0.160109 0.175809 0.0267933 -3.32432 -1.15243 -1.84565 -0.0141423 0.723761 -0.144567 
643 1 0.124724 0.176054 0.028992 2.4913 4.04713 -0.0584678 -0.141017 0.293019 -0.616277 
645 1 0.141929 0.209139 0.0277034 -1.01206 -1.51569 3.05338 0.331322 -0.45125 -0.206747 
419 1 0.195177 0.219707 0.00188903 0.794519 -0.606789 -0.0638498 0.83086 0.287572 -0.409562 
602 1 0.213459 0.188049 0.000417779 -1.48311 -0.351067 0.244727 -0.016352 0.333823 -0.714609 
619 1 0.177968 0.190836 -0.00102865 -0.907824 3.4681 0.79523 -0.111709 -1.2367 0.0145157 
620 1 0.177673 0.208413 0.028305 1.40302 -1.96461 1.23238 0.0439276 0.248127 0.119918 
621 1 0.194448 0.178031 0.0271351 -2.09662 0.234444 0.875071 0.387303 -0.301401 0.136894 
623 1 0.216308 0.207096 0.0275134 -4.75701 0.463298 0.146088 -0.88679 0.628531 0.187454 
409 1 0.268458 0.219925 0.000188537 1.00719 0.700372 0.215569 0.1829 -0.452291 -0.516635 
410 1 0.233588 0.220402 0.000523925 -0.568719 -1.93414 -2.19082 -0.7618 -0.95874 -0.504534 
605 1 0.249075 0.186886 0.000523875 0.918 0.727632 -0.689168 0.415946 0.49483 -0.466914 
606 1 0.251569 0.20878 0.0271772 1.14069 -0.462913 -2.24118 -0.687288 0.0258786 -0.159575 
607 1 0.268967 0.177604 0.0261688 -0.898197 2.13162 2.09882 -0.464213 -0.349743 0.575842 
608 1 0.230482 0.176902 0.0262842 0.240692 1.67107 0.234084 0.579576 -0.356433 0.781442 
407 1 0.303891 0.21901 -0.000290098 2.55954 1.74451 -1.69037 0.0662529 -0.0627988 0.0999892 
596 1 0.286057 0.185222 -0.00118142 2.11244 -0.776555 4.17318 0.164493 0.892972 0.474795 
599 1 0.323374 0.189326 -0.0006495 -0.43618 -1.74335 2.35106 -0.661551 -0.968147 -0.110177 
600 1 0.32073 0.207261 0.0271257 -3.27862 -0.699466 0.204437 0.338095 0.395222 0.182799 
601 1 0.30394 0.17619 0.0278142 -2.45785 -3.27581 -2.78474 0.193299 0.361613 -0.0606168 
609 1 0.285915 0.208484 0.0270168 -0.291643 -1.3285 -0.309504 0.0921835 -0.00203627 -0.0243503 
462 1 0.0363084 0.248552 0.00183811 -2.15168 0.7851 -0.250526 0.0546984 0.617708 -0.930796 
468 1 0.0531467 0.239761 0.0276369 -1.35989 2.23732 0.308742 0.177411 -0.109514 0.487672 
496 1 0.000358075 0.249208 0.00174357 -1.31845 -0.995287 0.505374 -0.388055 0.546143 -0.803471 
497 1 0.00139827 0.270072 0.0277798 0.755399 -0.407222 -1.44458 -0.920611 0.691035 0.231951 
498 1 0.0177587 0.240431 0.0275033 -0.127955 -1.21332 -0.523564 -0.075353 -0.723549 0.722921 
499 1 0.0354461 0.270243 0.0285019 -4.51232 -2.41535 1.62562 0.302575 0.287503 0.0420951 
436 1 0.10653 0.250926 -0.000578315 -1.75047 0.741891 -3.15396 0.24307 -0.438272 -0.269469 
465 1 0.0718371 0.250776 -0.000267161 -1.26302 2.11567 1.84825 -0.140575 -0.533147 0.110678 
466 1 0.0703394 0.269559 0.0285212 1.09004 1.38011 -0.496805 0.372401 0.553734 0.152432 
467 1 0.0887435 0.240888 0.0281343 3.79181 2.8634 5.00544 0.415633 -0.153815 -0.147961 
469 1 0.108209 0.27121 0.0256097 -3.5212 -0.75313 0.413715 -0.547513 0.0165116 0.9579 
439 1 0.142556 0.251022 -0.00160635 4.15471 -0.335473 1.55851 -0.30928 0.14642 0.593818 
440 1 0.141926 0.269944 0.0281087 -1.48325 -1.87504 2.37728 0.377919 0.422267 -0.0897582 
441 1 0.159657 0.240274 0.0275526 1.68851 0.644579 -0.108682 0.241496 -0.245969 -0.116524 
442 1 0.124655 0.238921 0.0268153 -0.56528 -3.64208 4.09707 -0.0577631 0.634014 0.217849 
418 1 0.177203 0.251793 -0.000209942 1.89739 0.12297 -0.797659 0.367989 -0.231967 -0.166171 
421 1 0.214509 0.250666 -0.000320358 1.49864 -3.40703 2.00087 -0.506563 0.0488562 -0.113375 
422 1 0.213645 0.271464 0.0281642 -3.09609 0.987777 3.61596 -0.285484 0.0372871 -0.511801 
424 1 0.194694 0.241441 0.0274023 1.65841 1.84325 -2.3948 0.180773 -0.374378 0.268258 
443 1 0.177281 0.272098 0.0272644 -2.70267 -0.419799 -0.582775 0.289623 -0.0387915 0.668871 
408 1 0.249436 0.249483 -0.000180245 1.21474 0.1836 -0.441107 0.287379 0.700566 0.0363326 
414 1 0.267016 0.241105 0.02656 0.0973037 -5.1793 -0.0459352 0.235851 -0.0118363 -0.0621979 
423 1 0.229843 0.23897 0.0278869 1.4364 1.32488 -0.16584 0.603058 0.558324 -0.0194479 
425 1 0.247837 0.271661 0.0264552 -0.567178 -1.75442 -0.671959 0.251332 -0.336543 0.404768 
406 1 0.324225 0.249072 -0.00147772 2.33725 -3.40282 0.0669849 -0.782221 -0.237725 1.08443 
411 1 0.28823 0.250779 0.00044828 -1.9843 0.980626 1.19737 -0.436886 -0.109289 -0.147684 
412 1 0.287287 0.270919 0.0282166 0.743506 -0.583328 2.16494 -0.191385 0.169751 -0.500225 
413 1 0.303599 0.238912 0.0285432 -3.14437 1.9051 -0.226983 0.297234 0.258362 -0.691876 
415 1 0.322522 0.271533 0.0275261 -3.38058 -0.600379 2.72682 -0.324314 -0.532083 0.0996901 
270 1 0.0537438 0.28197 0.000318674 -0.29696 1.22876 0.893197 -0.311758 -0.37514 0.124793 
298 1 -0.0017371 0.31189 0.000549171 1.97415 -1.81319 -1.1767 0.0170961 0.291384 0.0717086 
299 1 0.0184534 0.280682 0.000640116 -1.8352 1.20291 -0.982046 -0.432826 -0.217329 -0.232896 
300 1 0.0337365 0.311714 0.000678671 -1.16128 0.452356 -0.0611205 0.358322 0.469002 -0.0898411 
302 1 0.0530468 0.300242 0.0282572 -3.66908 1.95373 4.19829 0.0546129 0.68479 0.150396 
303 1 0.0177948 0.30198 0.0274414 -1.54829 -0.0372641 0.493189 -0.384885 -0.0602014 0.620831 
268 1 0.0693093 0.313099 9.734e-05 -4.61004 2.22231 -3.08148 0.423928 -0.0538011 -0.283046 
269 1 0.0891426 0.280471 0.000362996 0.935263 0.039565 -2.17218 -0.193166 0.582968 -0.736787 
271 1 0.107588 0.311848 0.00147367 0.58286 2.12918 1.93281 0.0475292 0.341268 -0.406415 
274 1 0.0879622 0.30162 0.0256113 -0.595751 1.6172 0.108423 0.0927715 -0.230168 1.07024 
246 1 0.143029 0.314099 0.000355701 1.03316 0.25644 -0.322876 -0.139538 -0.261114 -0.107112 
247 1 0.160489 0.283074 0.0018021 2.86872 -1.18358 1.64978 -0.180707 -0.286417 -0.773358 
248 1 0.126018 0.282754 6.86643e-05 -0.180617 -3.03565 5.36626 -0.118214 -0.233428 -0.500639 
252 1 0.160861 0.304692 0.0267666 -2.23716 -4.14742 -1.30647 -0.0293847 -0.57113 0.686145 
273 1 0.126227 0.302156 0.0292952 0.57332 3.12715 0.976292 -0.264908 -0.259787 -0.73493 
232 1 0.213818 0.311337 -0.000252325 1.9689 3.53076 -1.88714 0.736091 0.768694 0.0379196 
234 1 0.196654 0.282172 -0.000637854 1.69324 -1.48144 4.73638 -0.341833 -0.923872 0.44804 
249 1 0.179889 0.312288 -0.00157671 1.49766 0.163549 -1.4504 -0.879956 0.422441 1.03064 
251 1 0.196072 0.302407 0.0274595 0.214693 1.96068 -5.47724 0.0361579 0.27455 0.137277 
228 1 0.266328 0.280201 0.00156112 0.00524257 -0.801318 -1.92647 0.917628 0.354393 -0.454152 
233 1 0.231755 0.282883 -0.000823834 -0.28268 -0.946239 -0.832766 0.0902216 -0.690596 -0.0580915 
235 1 0.252087 0.31189 -0.00184468 -2.02791 0.356796 -1.84345 -0.163485 0.350295 0.391964 
237 1 0.269707 0.302349 0.0297871 -0.794157 0.985109 0.785461 -0.813168 -0.198285 -1.22729 
238 1 0.232663 0.302462 0.0272695 5.11311 -4.06067 -2.19236 0.107526 0.325203 -0.0470499 
226 1 0.287509 0.312131 -0.00249127 1.44317 -2.08704 2.17485 -0.396766 0.134698 1.12679 
227 1 0.305139 0.280913 0.000947377 -2.67379 1.55116 0.530363 -0.469719 0.0952162 -0.264053 
229 1 0.321795 0.311252 0.00143244 -0.0496982 0.222241 1.8988 0.183888 0.532669 -0.299947 
231 1 0.305297 0.302053 0.0296698 0.164521 2.99025 -0.198327 -0.770947 0.264953 -1.09983 
149 1 0.0353886 0.376865 0.00216795 -2.33059 -1.21071 0.855136 -0.190892 -0.358389 0.0151055 
150 1 0.0514976 0.345044 0.00155281 2.298 -2.81225 -1.91941 0.360677 -0.188209 -0.358307 
151 1 0.0168539 0.345724 0.000541814 0.632077 -0.398164 1.42127 -0.329937 -0.374592 0.0598383 
155 1 0.0548559 0.364886 0.0287615 -0.569607 -5.63574 0.672248 -0.684242 0.0465989 0.000317373 
177 1 -0.00125797 0.375579 0.00053304 -0.73204 3.58668 0.120988 -0.160814 -0.125416 0.265759 
179 1 0.0182366 0.365107 0.029989 -5.46654 -0.401154 -2.24781 -0.201678 -0.185467 -0.0818754 
301 1 0.0347439 0.333867 0.027827 1.17334 -0.834192 -2.79231 0.33386 -0.234295 0.37046 
334 1 0.000673735 0.333701 0.0288704 0.426436 0.326552 0.960188 -0.603137 -0.284553 -0.113978 
124 1 0.104497 0.375124 0.00192831 3.33123 0.301895 0.670051 0.613849 -0.322805 -0.183049 
126 1 0.0881856 0.343861 0.000705134 1.01642 -0.0790525 -1.14043 0.360875 -0.115262 0.339919 
152 1 0.0712422 0.37695 0.00152116 -3.61092 1.38538 -0.398915 -0.519421 -0.495719 0.0877328 
154 1 0.0890477 0.363795 0.0306051 4.87664 -1.17893 2.51095 0.162237 -0.0518635 -0.98035 
272 1 0.10534 0.332672 0.0279277 -0.0595075 -1.09855 1.00803 0.170447 0.0417258 0.395219 
304 1 0.0699831 0.332505 0.0267589 1.25786 -0.627976 0.655997 0.0168378 0.0854861 0.767604 
108 1 0.160374 0.343472 0.0010662 -1.30346 1.14846 -0.384775 0.531037 -0.144802 -0.276665 
125 1 0.124725 0.345717 0.00123247 -0.643621 2.50742 2.83368 -0.672324 -0.957386 -0.435393 
127 1 0.142925 0.373048 0.00115505 1.78476 2.10225 2.50636 -0.438864 1.21859 -0.284944 
129 1 0.16013 0.36415 0.0279458 4.06594 -1.03817 -1.58183 0.155681 -0.169522 -0.0411663 
130 1 0.123032 0.364366 0.0291847 -1.04364 -1.42929 0.497682 0.407721 -0.0115901 0.100646 
275 1 0.140267 0.333476 0.028129 4.67685 0.916974 2.7191 0.615898 0.362383 -0.0579369 
106 1 0.176562 0.375792 -0.000478175 0.154638 -1.01737 -1.863 0.944929 -0.30404 0.0886429 
107 1 0.197669 0.342353 0.00311122 -1.49659 0.20684 2.69752 -0.633422 0.896548 -0.849113 
109 1 0.213744 0.375643 0.000115567 0.840909 1.3976 -0.452612 0.0233133 -0.250911 0.736846 
112 1 0.195721 0.364888 0.028951 2.29848 2.88712 -1.85264 0.784888 0.178617 -0.914344 
250 1 0.177804 0.333635 0.0281858 2.34603 1.06335 1.96457 0.261477 0.0203745 0.045113 
253 1 0.215526 0.333095 0.027876 -1.102 -4.97492 -0.241931 -0.0218365 0.0314597 0.685514 
96 1 0.251016 0.375557 -0.000410769 -0.34691 0.81466 0.878204 0.130544 -0.362187 -0.246533 
97 1 0.269297 0.344163 -7.09369e-05 -0.560738 -0.88665 -0.959918 -0.439729 -0.146527 -0.197627 
98 1 0.232128 0.342199 0.000200522 3.15254 -3.62498 2.79953 0.567148 0.323104 -0.140766 
102 1 0.269702 0.364538 0.0269352 -1.62765 -0.350071 -2.26384 0.474248 0.0370314 0.0354489 
111 1 0.235238 0.364786 0.026469 1.22298 1.88954 -2.78374 -1.02293 0.15336 0.247502 
236 1 0.250964 0.3341 0.0286517 1.68757 1.95148 -2.75538 0.145414 -0.533536 -0.360283 
94 1 0.32344 0.375444 0.000511298 4.03291 3.27106 -1.06092 -0.0346623 0.246156 -0.579281 
95 1 0.304442 0.345662 0.00136937 0.829609 -0.24878 0.113521 0.215272 -0.808078 -0.267478 
99 1 0.289313 0.375963 0.000416761 0.0358761 3.22028 -1.39021 -0.99992 0.430904 -0.0937991 
101 1 0.305097 0.366809 0.0282414 0.343583 1.76586 -3.77762 -0.242705 -0.751124 0.0756264 
230 1 0.322488 0.333428 0.028869 -0.875109 -0.691649 -3.30392 -0.391068 0.158719 -0.384056 
239 1 0.286818 0.331984 0.0267286 -1.79591 -4.50396 0.11784 0.021868 0.492049 0.22807 
56 1 0.0528039 0.407944 0.00191578 -2.1045 -2.47022 -0.703826 0.323028 -0.610514 -0.663463 
70 1 -0.00213431 0.438198 0.00117392 3.02445 0.187281 -0.474402 0.404227 -0.312721 -0.197263 
71 1 0.0178989 0.406631 -0.000949502 2.59873 0.866293 2.68521 -0.558668 0.338394 1.00726 
72 1 0.0362117 0.43798 0.0013581 0.661625 -1.84676 -0.0944137 -0.534224 -0.234554 -0.66779 
74 1 0.0525461 0.42594 0.0286416 -2.62301 -1.92948 2.63863 0.537252 0.488447 0.21944 
75 1 0.0184706 0.428257 0.0287466 1.94282 2.57494 0.0928389 -0.282478 -1.18084 -0.568503 
178 1 0.000790782 0.395333 0.0274461 -3.78734 0.066642 0.251354 -0.231346 0.356313 0.382046 
180 1 0.0366383 0.395467 0.0302284 1.9555 0.876769 0.748357 -0.119175 0.182384 -0.321344 
54 1 0.071005 0.437915 8.30688e-05 -0.455447 2.48588 -3.19686 0.290036 -0.247473 -0.157211 
55 1 0.088918 0.406176 -0.0019521 1.96112 2.24113 1.83308 -0.200321 0.455419 0.573723 
57 1 0.108666 0.435384 0.00134023 -0.873719 -0.306266 1.96147 -0.944347 0.395387 -0.579157 
60 1 0.088356 0.428053 0.0285747 0.923854 -1.70799 3.95262 0.152646 -0.640197 -0.331877 
153 1 0.0726389 0.396187 0.0297 2.15283 1.66327 -0.803832 -0.167037 -0.0584954 -0.499775 
156 1 0.107594 0.396111 0.0285387 -0.615733 1.64783 -0.0559113 -0.137076 0.11973 -0.301641 
38 1 0.141926 0.437563 -0.0012169 5.32712 1.8029 2.60504 0.316973 -0.560451 0.530359 
39 1 0.161671 0.406577 -0.00035491 -0.846861 2.87043 -0.199419 -0.500137 -0.0266716 -0.270952 
40 1 0.124512 0.40429 0.00041191 -3.28969 -1.20122 -0.175384 0.498351 0.206268 -0.040048 
44 1 0.160358 0.42532 0.02748 -0.651 4.13254 3.56186 0.0686149 0.66799 0.314141 
59 1 0.125561 0.42634 0.0277254 0.668652 -3.03259 -2.38684 -0.119848 -0.197887 0.388084 
128 1 0.144054 0.393945 0.0286896 -2.68063 1.34356 2.51495 -0.632497 0.515216 -0.362164 
25 1 0.213736 0.438208 -0.00168113 -1.59932 -3.52273 0.364043 0.188605 -0.231737 0.47478 
27 1 0.199567 0.407309 0.00049341 4.60048 -1.52071 0.0914874 -0.983375 -0.34225 0.309443 
41 1 0.177203 0.438358 -0.000197961 -1.70783 -0.478012 -0.602277 0.411744 -0.313147 0.276051 
43 1 0.197283 0.427193 0.0283419 0.575984 1.64711 -0.275782 -0.467025 -0.189455 -0.208993 
110 1 0.216818 0.396638 0.028666 -1.43353 -2.49088 -3.19827 -0.29784 -0.318694 -0.365918 
131 1 0.178307 0.396318 0.0276334 -2.37045 0.583631 -2.49151 0.918824 -0.35607 -0.217989 
21 1 0.268112 0.406746 0.000504507 -0.962428 -0.496734 -0.901422 0.909227 0.0950198 -0.162534 
26 1 0.234437 0.406628 -0.00102167 1.37007 2.87051 1.35778 -0.508772 0.0277247 0.847058 
28 1 0.251612 0.437951 0.00158587 1.33963 -1.79249 -0.938238 -0.652849 0.229185 -0.537919 
30 1 0.269207 0.429061 0.0273273 -0.446445 -1.67246 1.63384 0.160548 0.0575536 0.346326 
31 1 0.233146 0.428228 0.029113 0.326161 1.46204 -2.87544 0.285543 -0.621424 -0.747342 
113 1 0.252802 0.395603 0.02816 0.999745 -0.891344 -1.95044 -0.414018 0.556157 -0.315081 
19 1 0.287495 0.438952 -6.11965e-05 -1.07758 -2.75261 -1.14008 -0.238922 -0.281354 0.574257 
20 1 0.305883 0.407752 0.00148068 -0.492859 -2.67199 -0.0160083 -0.540789 -0.21482 -1.01938 
22 1 0.322319 0.4388 0.00121691 -4.12977 1.89153 -1.14694 -0.0582258 0.226108 -0.338576 
24 1 0.305538 0.427969 0.0279952 0.183467 -1.4606 2.16016 0.10727 0.443979 0.482975 
100 1 0.287363 0.398366 0.0271615 0.733316 0.646136 0.600007 0.0391558 -0.533889 0.315072 
103 1 0.32392 0.395903 0.0277463 1.86435 -0.348975 -1.94097 -0.575393 0.359322 0.182446 
14 1 0.0530106 0.467957 -0.00191266 -2.61761 2.62442 -0.467975 0.103821 -0.0598951 0.502685 
15 1 0.0165878 0.466807 0.000527571 3.3346 -4.36616 -1.61943 0.176913 0.591427 0.0522249 
17 1 0.0549517 0.488589 0.0293076 1.29794 -2.79496 5.59934 -0.737975 0.123575 -0.853932 
18 1 0.0182269 0.487696 0.0277526 0.332943 1.58038 -0.715043 0.0458382 0.138347 0.135104 
73 1 0.0361406 0.457837 0.0281566 0.967046 0.363238 1.79724 0.265278 0.542051 -0.284653 
85 1 0.000734084 0.457042 0.0293463 3.80233 -2.12998 0.450237 -0.608138 1.12923 -0.671449 
11 1 0.0899215 0.469005 -0.000690559 -1.08793 -2.02964 -1.71822 0.0629619 -0.336861 0.445736 
16 1 0.0886936 0.488649 0.0278444 0.5601 1.30712 2.23043 0.585911 0.202684 -0.299327 
58 1 0.106074 0.457451 0.028441 3.46899 1.90344 1.03602 0.366927 0.328255 -0.402864 
76 1 0.0709174 0.4578 0.0270108 -2.98549 0.462145 -0.53822 0.0583253 0.124527 -0.0887801 
7 1 0.158172 0.468157 -7.55858e-05 -2.57921 3.18777 -1.14353 0.826128 0.570861 0.254138 
10 1 0.124624 0.467831 -0.000854155 2.14435 2.40985 -0.122404 -0.431717 0.495093 0.724162 
12 1 0.159512 0.489459 0.0295388 -1.5493 2.0962 1.32439 0.206487 0.198584 -0.8579 
13 1 0.124724 0.489036 0.0264728 -1.52277 0.86218 -2.8421 -0.222077 -0.232322 -0.130759 
61 1 0.142196 0.457029 0.0275764 -0.318942 1.7479 -0.699309 -0.0355439 0.0287139 -0.078551 
6 1 0.194944 0.468495 0.00154888 -1.41213 -2.65287 0.248573 0.0954011 0.148282 -0.666495 
9 1 0.194553 0.490407 0.026379 1.22933 -3.25887 -0.773383 0.495359 -0.263719 0.495756 
42 1 0.176873 0.458941 0.0273353 2.11242 -1.01894 0.201128 0.340292 -0.404772 0.697371 
45 1 0.215134 0.456241 0.027515 2.84621 -1.14409 -1.14112 -0.476951 1.21601 -0.346842 
2 1 0.267829 0.46958 0.00129607 -0.392556 1.57099 1.18221 -0.0644866 -0.0727893 -0.151681 
3 1 0.231082 0.468103 0.000163001 -1.1946 1.48327 -0.685355 0.369649 0.238856 -0.0389825 
5 1 0.267556 0.490765 0.0287467 -2.52111 0.277732 3.01661 0.356014 -0.260154 -0.206477 
8 1 0.232105 0.489891 0.0270707 -0.16193 0.896893 1.02548 -0.425885 0.0240648 -0.0992693 
29 1 0.250448 0.460608 0.0290333 0.139284 -1.57615 1.12973 0.0976986 -0.429541 -0.471977 
1 1 0.302807 0.470888 0.000719015 0.151968 0.457786 -1.03786 0.335548 -0.630325 -0.111714 
4 1 0.305044 0.490661 0.0288393 -1.4112 1.25269 -0.0179755 -0.810578 0.136586 -0.235362 
23 1 0.322814 0.460434 0.0280867 -0.203039 3.0758 -1.94672 -0.17735 -0.68792 0.0814952 
32 1 0.287419 0.460026 0.0295717 -0.939005 0.150666 0.437893 -0.351479 -0.143398 -0.4093 
1242 1 0.035276 0.0411811 0.0557346 -0.440423 -3.19068 -0.360431 0.268388 -0.220634 -0.165822 
1243 1 0.053982 0.0105012 0.0546616 3.35264 -1.8237 1.4691 -0.137662 0.186843 0.300759 
1244 1 0.0177413 0.00991872 0.0561121 -1.38108 -1.8569 -0.610219 0.0809405 0.245887 0.246833 
1248 1 0.0552114 0.030695 0.083779 2.2154 -1.04994 -0.994589 -0.533383 0.614799 -0.0674329 
1274 1 -0.00029039 0.0428174 0.0567277 -0.624644 0.815704 -2.33039 0.106642 -0.339323 -0.378673 
1276 1 0.01717 0.0325583 0.0837289 0.594103 -4.16616 1.96171 0.636777 -0.500748 -0.247273 
1381 1 0.0375527 0.000911946 0.0850163 1.61864 -0.452848 -1.09492 -0.521372 0.107306 -0.654041 
1405 1 0.00139883 0.000736941 0.0842111 1.23388 2.25357 2.12567 0.0190723 -0.261894 -0.156657 
1213 1 0.107544 0.0429224 0.0545066 1.93546 1.33166 -0.301664 -0.0960574 -0.383013 0.831958 
1215 1 0.0897355 0.0111828 0.056715 -1.81195 -1.322 -1.18768 0.179982 0.0145685 -0.49752 
1245 1 0.0704089 0.0418982 0.0543153 1.69277 1.27908 -2.88186 0.254248 0.177689 0.475055 
1247 1 0.0893953 0.0321381 0.082815 -0.337712 -1.40032 -0.319815 0.300861 0.257648 0.184957 
1359 1 0.10846 0.00174816 0.0843212 3.54861 2.09522 0.295438 -0.175056 -0.478586 -0.396091 
1382 1 0.072675 0.00130278 0.0840617 -2.82327 2.12755 4.13802 -0.028087 -0.559656 0.0264532 
1193 1 0.162548 0.0101644 0.054425 1.79926 3.11878 1.73266 -0.651023 0.122095 0.36266 
1214 1 0.125373 0.0122219 0.0544102 1.01113 2.38123 -2.06651 0.470865 -0.335605 0.983603 
1216 1 0.143121 0.0435405 0.0568016 0.122632 -0.49103 -1.79109 0.119884 -0.169264 -0.373538 
1218 1 0.161138 0.0318629 0.0832693 1.00665 1.8539 1.48376 -0.574239 -0.410109 -0.00594475 
1219 1 0.125326 0.032461 0.084067 -0.818962 0.773426 -2.32988 -0.0649915 0.0121234 0.0114611 
1360 1 0.143547 0.000420747 0.0829887 -3.1163 -0.56975 -0.10929 -0.0604494 0.0552359 0.0903363 
1191 1 0.17871 0.0427584 0.0544282 -1.81406 -2.76813 1.06807 -0.257776 -0.164051 0.833335 