ITEM: TIMESTEP
10000
ITEM: NUMBER OF ATOMS
576
ITEM: BOX BOUNDS pp pp pp
0 18.4421
0 15.9713
0 16.9402
ITEM: ATOMS id type xs ys zs vx vy vz 
84 1 0.18445 0.115459 0.0128277 10.0519 -7.28258 1.4528 
91 1 0.0672825 0.122003 -0.0114071 3.06486 2.92208 7.36015 
94 1 0.18834 0.20193 0.10736 -9.44022 2.60982 -4.90435 
95 1 0.072465 0.201855 0.116756 -0.553743 1.69177 -3.81158 
122 1 0.121959 -0.00722074 0.00011926 -0.159 0.340745 -0.746393 
130 1 0.00728998 -0.00353016 -0.00309021 3.19654 -2.90604 -3.65973 
131 1 0.00586116 0.0845454 0.092321 -1.14786 -7.92511 -4.11081 
132 1 0.124584 0.0752769 0.113203 4.41434 0.260355 -4.742 
133 1 0.123669 0.151995 0.218139 -0.22175 -3.95748 1.39391 
134 1 0.186457 0.0310292 0.227638 -2.15589 2.5038 1.02237 
135 1 0.0573473 0.0411103 0.223329 -4.73753 -0.250898 -2.80274 
144 1 -0.00415892 0.169385 0.215168 0.59391 8.1684 -1.16441 
81 1 0.433202 0.122546 0.0108 -8.30104 -2.37575 -0.269461 
83 1 0.311488 0.118174 -0.00797675 -6.58122 1.61801 1.20738 
87 1 0.443796 0.205188 0.114336 2.63937 -5.23062 -3.85318 
88 1 0.312864 0.197676 0.102893 -3.83101 -5.39667 -5.54351 
121 1 0.367021 -0.00183821 0.000469148 -2.77963 0.81318 1.12218 
123 1 0.252079 0.00157355 0.00342593 -4.07148 2.70705 1.21471 
124 1 0.247944 0.071396 0.111897 -3.18162 -2.19766 6.36231 
125 1 0.369716 0.0737685 0.111256 4.83793 7.46723 -5.18266 
126 1 0.374591 0.166344 0.216895 2.79107 -1.47041 -1.59895 
127 1 0.442741 0.0508117 0.229553 0.247148 9.00819 3.56624 
128 1 0.314029 0.0354183 0.226375 -0.370241 -1.04878 -10.2224 
136 1 0.251321 0.161389 0.215054 -0.863059 0.673201 -10.9041 
46 1 0.183732 0.372583 -0.00196042 7.02605 5.20263 -6.97887 
47 1 0.0612416 0.386505 0.00690403 -2.37392 9.51538 2.4908 
51 1 0.198187 0.458174 0.115072 -4.28663 -4.02336 1.49369 
59 1 0.0671713 0.467102 0.108287 -4.18752 -7.38828 3.49375 
90 1 -0.00795462 0.248123 -0.00372011 -2.59861 2.91803 0.147611 
92 1 0.119658 0.252696 -0.0011868 -3.10454 -4.84864 0.978167 
93 1 0.125483 0.326505 0.107815 -5.1628 3.1429 -0.132859 
99 1 0.18343 0.280095 0.224819 5.27822 5.46595 1.29265 
105 1 0.00444487 0.335002 0.0994365 0.724767 -0.212277 -5.44217 
106 1 0.00165693 0.424578 0.209508 3.42097 -0.773739 -1.98164 
107 1 0.0575082 0.282248 0.219306 8.33878 -5.85961 3.76333 
108 1 0.130205 0.415054 0.219065 -0.288364 8.77081 1.81393 
42 1 0.435581 0.366171 0.000321586 -1.99613 -4.09818 9.47731 
43 1 0.30528 0.374868 0.00433571 -2.89597 -0.623621 -1.23018 
44 1 0.437 0.470781 0.12289 8.85487 -3.26062 1.41808 
50 1 0.322818 0.458241 0.107635 1.4798 6.04006 0.404335 
82 1 0.23589 0.241886 -0.00289309 6.4059 -1.23935 -6.21471 
85 1 0.367451 0.252465 0.00565931 -13.215 0.168735 -2.31012 
86 1 0.381892 0.329703 0.12101 -4.65694 1.57766 2.95173 
89 1 0.431536 0.286415 0.233087 6.60155 -1.27576 1.18887 
96 1 0.251808 0.32467 0.112467 -0.161906 1.62158 4.47559 
97 1 0.259644 0.408485 0.217955 -1.23531 -2.18367 -3.12039 
98 1 0.313138 0.296125 0.217081 0.522481 4.56568 8.33885 
100 1 0.385156 0.430601 0.235464 -7.6788 -10.5947 4.26692 
12 1 0.194261 0.629918 -0.00672101 -5.69772 -3.91923 9.91671 
19 1 0.0703768 0.62763 -0.00593332 -8.85236 2.38644 -2.65297 
22 1 0.193358 0.702638 0.112041 -3.81657 4.19187 9.43865 
23 1 0.0596167 0.709513 0.114022 -8.19934 12.2992 3.59781 
45 1 0.130483 0.493172 0.000117977 -1.55731 5.98706 2.43018 
57 1 -0.00369678 0.504933 -0.00593563 4.92665 -0.0256185 -0.357964 
58 1 -0.000516559 0.58744 0.110669 5.44678 -4.91961 1.37232 
60 1 0.13826 0.588011 0.10569 4.50508 -1.80297 3.21688 
61 1 0.134181 0.666339 0.220478 -2.24624 2.51689 -0.210547 
62 1 0.197512 0.543306 0.224054 -1.9353 0.960566 -0.983802 
63 1 0.064865 0.543221 0.213321 4.93404 -5.81983 -1.07456 
72 1 0.000474453 0.663473 0.221551 -6.23017 2.61642 2.80695 
9 1 0.438257 0.626004 -0.0050118 6.31274 -0.779301 5.61005 
11 1 0.320473 0.62678 -0.00584091 1.24335 -5.63459 -1.29907 
15 1 0.438714 0.715124 0.12274 3.73296 -4.43915 0.992026 
16 1 0.316701 0.712399 0.114136 7.24426 1.41835 3.91692 
41 1 0.38622 0.49767 -0.00564383 -2.25915 1.80102 -3.56465 
48 1 0.251151 0.504349 -3.3499e-05 5.41592 0.681276 3.56475 
49 1 0.259752 0.580768 0.116408 -11.5113 -3.15156 4.12126 
52 1 0.374008 0.594015 0.102208 2.74446 4.94723 -4.71877 
53 1 0.381059 0.663995 0.223234 -3.94613 -0.0234878 5.33449 
54 1 0.434375 0.551189 0.236526 3.8367 3.51923 5.04967 
55 1 0.326028 0.543342 0.234641 -0.250101 1.13206 5.02922 
64 1 0.256814 0.66301 0.223051 -6.65298 0.893957 2.96235 
4 1 0.189609 0.874902 0.00946818 -3.7944 -6.11395 -5.72157 
5 1 0.0663728 0.863448 0.00533711 -0.191887 -1.68738 5.61132 
7 1 0.185297 0.955276 0.119745 -0.573785 6.29963 5.7082 
8 1 0.0638832 0.961709 0.105996 -3.89796 -0.422027 -2.36217 
18 1 -0.00222953 0.744603 0.00835553 3.34112 3.03324 1.09076 
20 1 0.124016 0.744224 0.00780944 -2.02512 -5.53128 2.0772 
21 1 0.124996 0.834895 0.11223 -5.57959 -0.850491 -0.061583 
27 1 0.192131 0.793214 0.222076 1.49021 -2.51591 -1.30224 
32 1 -0.000120582 0.839391 0.120201 2.5003 -2.55711 9.65622 
33 1 -0.00312467 0.917484 0.219848 -6.11072 -1.59553 4.0912 
34 1 0.0637497 0.788781 0.223897 3.90393 3.93767 -4.37227 
35 1 0.11937 0.915029 0.217694 -1.75687 4.64788 -2.71427 
1 1 0.433016 0.892106 0.00184296 -6.59121 -2.30845 3.11647 
2 1 0.314414 0.872562 0.00442053 4.68434 1.53547 3.63369 
3 1 0.434729 0.96066 0.123929 6.07114 -4.16085 -0.927945 
6 1 0.311005 0.956807 0.116949 4.69747 0.553782 3.96407 
10 1 0.240894 0.746976 -0.000291376 -4.34452 -3.12741 -2.89379 
13 1 0.370595 0.754775 0.00974539 -0.5742 5.09653 -0.255516 
14 1 0.372542 0.833909 0.120628 3.98529 -5.16762 -1.33582 
17 1 0.442006 0.788168 0.226799 0.600779 7.30827 0.634074 
24 1 0.250706 0.830385 0.111314 -1.37094 -5.70245 -2.49395 
25 1 0.249863 0.912741 0.220414 1.8401 -12.0153 -2.59478 
26 1 0.31709 0.786745 0.223024 -0.217368 5.05791 0.0457314 
28 1 0.379583 0.913066 0.227488 0.800424 -3.45944 -0.326623 
139 1 0.190253 0.12508 0.324161 4.13381 -0.831214 -2.6894 
146 1 0.0624724 0.130219 0.331703 9.3761 1.18321 0.0921344 
149 1 0.189552 0.20638 0.442319 4.57059 -5.12003 0.991051 
150 1 0.0529515 0.211411 0.442845 -1.36855 -4.69304 10.917 
154 1 0.111567 -0.00485278 0.328921 2.3007 -1.60676 -5.60763 
158 1 -0.0116629 0.00126817 0.332799 0.973208 3.83293 2.74249 
159 1 -0.010933 0.0816973 0.441299 0.801548 -5.33165 3.70322 
160 1 0.115064 0.090707 0.436292 2.35912 4.78398 -2.10138 
129 1 0.43256 0.13911 0.335583 9.4981 -3.10826 -6.8145 
138 1 0.303635 0.119305 0.333845 2.64867 -6.48986 4.56769 
142 1 0.436963 0.210254 0.443685 -2.80828 1.1928 3.39218 
143 1 0.300419 0.200591 0.431881 -0.543662 -0.74089 -3.96754 
153 1 0.376862 0.00375517 0.331272 -6.01026 5.89598 1.8951 
155 1 0.24835 -0.013355 0.330955 0.717204 -7.15949 -2.67716 
156 1 0.238856 0.0745161 0.444584 -2.86004 0.152865 -6.57479 
157 1 0.37077 0.0785352 0.442696 -2.43372 4.15842 3.93783 
110 1 0.196001 0.376629 0.323989 2.82923 -3.71413 -2.40555 
111 1 0.0619161 0.369336 0.311879 0.804558 -4.67006 -1.21694 
115 1 0.193756 0.463181 0.449727 4.87477 -0.848839 9.77392 
119 1 0.0636212 0.464151 0.444723 -3.08443 7.57098 2.78917 
145 1 -0.0101384 0.246438 0.337204 6.88977 0.314767 -4.5268 
147 1 0.115978 0.24606 0.314691 -2.07137 0.420913 -5.33561 
148 1 0.123237 0.327808 0.426202 0.556909 -0.62642 -7.1511 
152 1 0.00116346 0.3386 0.432907 -3.31778 3.42733 2.04461 
102 1 0.441778 0.379614 0.333564 0.257792 -2.24239 0.592476 
103 1 0.314038 0.371967 0.336656 1.19894 -0.295478 1.98592 
104 1 0.441697 0.461034 0.445938 2.32689 -3.58149 -6.83649 
114 1 0.321338 0.463077 0.453434 -2.54424 -1.23176 -4.34803 
137 1 0.254574 0.249754 0.323016 1.41366 6.77773 3.70161 
140 1 0.364617 0.248309 0.332478 -1.75912 4.41636 -0.226861 
141 1 0.373636 0.328368 0.440622 2.53278 -7.11062 6.69726 
151 1 0.240921 0.331023 0.439494 1.90961 3.00883 -6.89565 
67 1 0.195158 0.61047 0.335031 10.6247 2.65958 1.5166 
74 1 0.0736257 0.616009 0.3265 -0.440468 -0.160126 2.17823 
77 1 0.183746 0.707124 0.4237 14.4717 4.36854 -4.8155 
78 1 0.0571338 0.710628 0.443731 1.68473 -2.381 1.20198 
109 1 0.130467 0.493406 0.336825 3.77804 10.2326 -1.00482 
117 1 0.00415336 0.496758 0.327166 0.0258524 2.00244 -0.413712 
118 1 0.00714902 0.579956 0.433786 -0.485234 -4.67595 -0.62137 
120 1 0.130359 0.586156 0.451499 -0.0656056 -2.50933 2.39311 
56 1 0.429824 0.628814 0.33981 -2.49583 3.65473 -5.55594 
66 1 0.310495 0.630788 0.341195 -4.1274 -4.24199 -3.53839 
70 1 0.443086 0.716875 0.442654 -4.09065 1.05833 -2.0029 
71 1 0.305961 0.710773 0.442128 -6.12046 -6.76934 -6.35145 
101 1 0.373803 0.50521 0.344142 1.72889 -7.96539 0.36129 
112 1 0.262246 0.486951 0.334551 5.82098 9.18756 0.241246 
113 1 0.251216 0.586962 0.452941 3.01215 0.942986 -0.575535 
116 1 0.374844 0.595342 0.451041 -0.272961 -5.75199 2.47433 
36 1 0.186049 0.8674 0.330197 -5.07759 -0.423259 1.87359 
37 1 0.0613961 0.8711 0.338338 0.984066 -4.27202 -1.39661 
39 1 0.175643 0.964839 0.441275 0.126043 -2.62889 -2.63495 
40 1 0.0570501 0.95675 0.446655 0.772432 -3.17599 2.72246 
73 1 0.00387328 0.732998 0.33261 0.58473 0.557048 4.86142 
75 1 0.121043 0.739411 0.323363 -4.95419 -3.03609 11.7405 
76 1 0.126862 0.838605 0.448531 -1.25601 1.48721 -15.762 
80 1 0.00474732 0.828927 0.445596 2.92589 -8.59185 2.57441 
29 1 0.435395 0.87785 0.333136 -2.69061 4.97651 4.8658 
30 1 0.309114 0.864808 0.327481 13.2353 -1.8648 1.52128 
31 1 0.434342 0.959162 0.445921 0.466877 4.31867 -0.402823 
38 1 0.303651 0.956598 0.43615 2.06899 4.52389 -2.05067 
65 1 0.248625 0.749093 0.326538 3.44375 5.39614 -1.6636 
68 1 0.378878 0.755021 0.328987 4.30488 5.74151 2.2297 
69 1 0.368777 0.829267 0.447252 -4.06786 -12.9764 -1.8671 
79 1 0.249332 0.836079 0.432061 -2.09139 6.78893 1.81538 
245 1 0.115037 0.160999 0.553001 4.94879 3.4276 0.76844 
246 1 0.181029 0.0367193 0.552886 1.62901 6.70306 1.72043 
247 1 0.0601393 0.04402 0.552297 -0.675427 7.28458 -2.71918 
251 1 0.178395 0.126519 0.657958 8.64474 -8.99161 -0.894319 
257 1 -0.001662 0.168219 0.546792 -3.59648 4.59361 6.68512 
259 1 0.0607652 0.128393 0.665896 -2.80434 3.03463 -2.76138 
274 1 0.125689 0.00416487 0.6669 1.10962 -5.25818 4.66177 
281 1 0.00150213 0.00832611 0.66859 6.30819 0.517612 2.53255 
241 1 0.370983 0.164334 0.548596 2.56118 4.85546 -1.0906 
242 1 0.434169 0.0467926 0.560496 10.55 3.09022 -0.51114 
243 1 0.305978 0.0391936 0.54927 11.0649 -3.20577 -4.16411 
244 1 0.433885 0.1316 0.668027 -2.01687 6.94024 -5.13984 
248 1 0.24414 0.155013 0.545861 4.75961 -3.36283 -3.18174 
250 1 0.318366 0.12408 0.669137 -1.19071 0.057087 7.77897 
275 1 0.256417 -0.0023651 0.665998 7.91389 2.486 3.32029 
212 1 0.183917 0.285609 0.558081 -0.49854 8.47273 -1.66157 
218 1 -0.00676585 0.413466 0.552839 8.89605 -1.92163 8.25881 
219 1 0.0670515 0.291025 0.5516 3.56701 -4.07505 1.46463 
220 1 0.119478 0.410595 0.551235 1.72581 -0.717983 -2.30439 
222 1 0.191032 0.368246 0.661772 -1.33185 -1.46042 -3.34565 
223 1 0.0457558 0.374822 0.680613 -1.76599 -3.67425 3.37523 
258 1 0.00517886 0.245388 0.671841 0.389364 8.94194 -1.21016 
260 1 0.116365 0.248714 0.663155 -4.93496 4.3723 -1.52645 
209 1 0.434015 0.289853 0.550683 -5.71864 -0.908138 -2.84134 
210 1 0.255594 0.416906 0.554223 -1.39535 6.56812 -1.40592 
211 1 0.308851 0.284541 0.554903 -11.0785 -3.71626 -11.8189 
213 1 0.380035 0.429184 0.560241 1.02289 -3.21171 -1.87859 
215 1 0.450206 0.376927 0.672912 -3.39613 -6.73 -4.7956 
216 1 0.31514 0.37256 0.66541 6.72071 -1.97518 2.38843 
249 1 0.254755 0.245199 0.671912 -7.03092 3.4772 5.27362 
252 1 0.370263 0.255133 0.665797 7.84251 -4.26702 -6.40046 
181 1 0.123403 0.670807 0.563448 -3.30868 -4.53846 1.5211 
182 1 0.195057 0.533554 0.56512 -3.76968 -8.55215 2.43521 
183 1 0.0659294 0.539174 0.552223 -2.85805 -0.742494 -3.36196 
187 1 0.187945 0.62076 0.665194 4.80411 -4.8035 9.16697 
193 1 -0.00448892 0.658141 0.562558 -3.52037 -11.483 -3.58466 
195 1 0.0745085 0.626359 0.678668 -0.857224 7.09297 2.274 
221 1 0.121694 0.489416 0.660969 -3.51587 -0.95573 -5.28908 
232 1 0.00225699 0.501619 0.663208 2.32538 6.60083 -9.42419 
177 1 0.372645 0.680118 0.558959 -3.43639 3.47249 -3.18877 
178 1 0.445729 0.558924 0.552941 -1.36753 6.59324 -3.46105 
179 1 0.314711 0.548328 0.560607 -2.36294 1.57046 3.29767 
180 1 0.435556 0.631917 0.664937 4.4394 -4.17944 -9.28539 
184 1 0.24828 0.669715 0.560425 -5.19889 4.22819 -5.9448 
186 1 0.309412 0.631589 0.663699 -7.62179 -9.97765 -8.58016 
214 1 0.380153 0.506818 0.666896 -7.11985 -0.774938 -1.79162 
224 1 0.261216 0.494326 0.668252 -2.90459 0.240607 0.83958 
164 1 0.18717 0.792645 0.557195 -0.862265 -9.60353 -9.31799 
169 1 -0.00319658 0.914574 0.564362 -6.19267 -1.19231 0.748369 
170 1 0.0664704 0.793965 0.551988 5.79357 2.29417 0.600758 
171 1 0.119765 0.914366 0.561702 0.192583 0.579226 -0.075395 
172 1 0.183544 0.873066 0.667524 3.15567 -0.290982 -3.96407 
173 1 0.0534871 0.874071 0.670342 -1.55333 2.58281 6.92065 
194 1 -0.0102596 0.753039 0.66064 -2.19604 -2.40047 6.50219 
196 1 0.112571 0.750534 0.670913 0.603001 -3.72312 -0.383294 
161 1 0.44186 0.791434 0.563751 -0.0479367 0.162308 -7.44752 
162 1 0.23833 0.911074 0.538748 4.94974 3.14953 1.22995 
163 1 0.310068 0.782615 0.555393 -0.968314 -3.08102 -3.60176 
165 1 0.373226 0.910611 0.553816 0.524995 -1.49157 2.75187 
166 1 0.434151 0.862736 0.677472 5.44484 4.96109 -4.65178 
167 1 0.3091 0.888195 0.654601 5.56985 0.698054 -3.94186 
185 1 0.236739 0.739193 0.679216 2.20257 -7.39289 1.94076 
188 1 0.36185 0.757036 0.671208 0.160684 6.42634 -4.5679 
273 1 0.378805 1.0026 0.675013 -6.85384 -2.3952 0.656059 
262 1 0.187581 0.193698 0.769284 1.91633 4.3483 -5.74081 
263 1 0.0695635 0.208753 0.77704 -0.29069 3.78672 2.14754 
282 1 0.00654699 0.0898552 0.776981 7.82239 1.13661 3.721 
283 1 0.122124 0.0777694 0.786194 3.20194 0.877626 3.54435 
284 1 0.132947 0.151241 0.893875 0.651769 -6.95081 -7.57982 
285 1 0.205792 0.0360331 0.897315 -2.85922 -1.87431 3.97394 
286 1 0.0525781 0.0489952 0.886278 -4.3147 -5.04301 4.28042 
288 1 -0.0113509 0.163946 0.885317 -0.953763 1.42187 -2.24532 
254 1 0.436122 0.213794 0.791614 -8.34174 -1.55184 -10.079 
255 1 0.31625 0.207383 0.784091 9.9583 -3.63869 1.6039 
276 1 0.250257 0.0789653 0.78783 7.09512 2.0221 2.98228 
277 1 0.380362 0.0807102 0.779552 -11.5123 -1.18576 -6.52636 
278 1 0.383575 0.160568 0.891698 8.96032 -4.90911 9.97615 
279 1 0.434608 0.0459094 0.900302 -6.67847 -2.26995 4.71611 
280 1 0.319597 0.0424372 0.88282 -3.05413 3.24493 7.82252 
287 1 0.252698 0.168575 0.887515 5.19745 -3.18341 -3.15623 
227 1 0.188465 0.45255 0.778652 -4.40282 0.620909 2.40819 
234 1 0.0591331 0.451668 0.775946 -2.80472 1.97974 -6.86087 
261 1 0.126339 0.328858 0.775112 -2.89616 2.06959 1.15911 
267 1 0.189336 0.279001 0.87842 -0.601458 6.19974 3.54927 
269 1 -0.00402214 0.321709 0.780776 -3.50533 -0.386796 1.97955 
270 1 -0.00344992 0.412112 0.888493 -3.59436 2.04162 2.53565 
271 1 0.0632053 0.274575 0.888244 -4.88398 -1.69688 -1.26697 
272 1 0.117846 0.409048 0.887502 0.0794306 0.817414 -1.79036 
217 1 0.433352 0.46031 0.771613 -5.53346 -8.53766 1.61062 
226 1 0.314384 0.457115 0.772677 -3.70425 5.98117 2.04696 
253 1 0.384693 0.337359 0.77958 -3.52361 3.90432 -4.85987 
256 1 0.4426 0.294608 0.897573 3.09271 -4.24652 -5.41614 
264 1 0.256151 0.331354 0.776709 1.74445 0.279187 2.25654 
265 1 0.245141 0.405178 0.892954 -1.08937 5.87214 1.51626 
266 1 0.314067 0.279489 0.898207 2.52834 -5.8751 7.85696 
268 1 0.368698 0.413532 0.892915 0.326439 0.512051 -1.68764 
198 1 0.188222 0.698863 0.784361 -8.24283 -0.610081 -3.58806 
199 1 0.0691179 0.711429 0.788896 -3.5774 -1.69105 2.84616 
233 1 0.00261888 0.583227 0.786117 -1.08505 -6.6153 -1.26098 
235 1 0.126535 0.566819 0.768575 -4.39421 -2.69008 -0.073771 
236 1 0.125303 0.658084 0.880367 5.22113 5.79048 -1.24994 
237 1 0.188583 0.527326 0.889316 -5.42792 0.472849 3.40668 
238 1 0.0675486 0.52993 0.888688 3.74276 8.2888 -5.38823 
240 1 0.00469902 0.664871 0.880753 2.30698 1.63566 2.14889 
190 1 0.445675 0.705378 0.770334 -0.757967 1.72708 7.53126 
191 1 0.316378 0.705817 0.789074 5.41935 3.74257 1.37431 
225 1 0.252254 0.576668 0.77161 0.0528964 -7.01914 -5.19701 
228 1 0.375538 0.589592 0.772299 -3.5045 -0.520217 -0.12685 
229 1 0.381368 0.664168 0.890244 2.50502 0.127623 7.6208 
230 1 0.441199 0.53812 0.884198 -0.666972 -2.8525 -5.52846 
231 1 0.314502 0.536615 0.888945 -9.5222 -2.37095 -9.88746 
239 1 0.242402 0.651631 0.885145 -3.91334 2.95448 8.31521 
175 1 0.192846 0.952845 0.778464 2.88381 2.63702 0.841458 
176 1 0.0721437 0.959047 0.775737 -1.60316 -11.792 0.561699 
197 1 0.126189 0.826577 0.789137 0.325604 0.306201 7.57176 
203 1 0.199545 0.787992 0.877777 -1.53524 -5.35254 -1.49864 
205 1 -0.00151548 0.824949 0.772319 0.600399 -6.03909 -4.86321 
206 1 0.0165414 0.913961 0.882397 4.08141 -3.63063 3.96377 
207 1 0.0700151 0.79517 0.8993 -0.693495 -2.30027 2.91681 
208 1 0.133305 0.925144 0.895729 -1.76212 -2.59042 0.24553 
168 1 0.444408 0.971749 0.783483 5.1552 -3.77129 -5.64692 
174 1 0.320993 0.956605 0.776691 5.9413 -8.39594 -8.4026 
189 1 0.379598 0.832312 0.776354 -0.791155 -7.87798 5.90056 
192 1 0.427647 0.800898 0.890714 5.16785 0.0400041 8.55747 
200 1 0.262993 0.825196 0.766023 -4.07513 -2.76326 4.10535 
201 1 0.256038 0.915849 0.883943 0.70788 1.38709 -3.53174 
202 1 0.312389 0.786006 0.905318 1.67932 -1.25964 -6.04503 
204 1 0.373282 0.918557 0.89034 0.841656 -2.47066 3.05432 
372 1 0.685635 0.126288 -0.00927806 4.92344 -2.17299 -3.64856 
379 1 0.55913 0.117688 0.00704885 -0.0139 -4.93457 0.00529547 
382 1 0.699494 0.217059 0.103686 -0.369256 1.64368 3.06644 
383 1 0.572677 0.207977 0.111961 -1.44444 -2.15908 3.37194 
410 1 0.625466 0.00164568 0.00026998 -0.625623 -5.64919 -3.45715 
418 1 0.50334 -0.00549687 0.016848 -8.28849 -1.65611 -0.304556 
419 1 0.504635 0.0796165 0.119573 5.59293 0.937337 4.20001 
420 1 0.628226 0.0852774 0.11255 -0.23654 -3.09599 -7.98919 
421 1 0.629889 0.152159 0.223114 -2.28596 -6.43283 7.46206 
422 1 0.699326 0.0413288 0.22583 8.79443 1.73341 5.90043 
423 1 0.568254 0.0379328 0.226995 -0.76922 5.01032 -3.40243 
432 1 0.504998 0.160649 0.226789 6.32977 -3.6854 7.19205 
369 1 0.933693 0.127718 -0.00182496 -11.5259 -0.980167 1.33527 
371 1 0.812619 0.114084 -0.00410774 1.57839 5.94912 -3.11314 
375 1 0.943855 0.207954 0.111069 4.53833 -0.179765 7.33818 
376 1 0.821369 0.211439 0.0919695 0.775063 0.506752 -2.29179 
409 1 0.871653 0.000172917 0.00513197 -2.53064 -4.86345 2.00915 
411 1 0.746452 0.00987566 -0.00585766 0.76406 -2.93704 3.67711 
412 1 0.748419 0.0893271 0.115177 -3.42875 9.43361 1.65067 
413 1 0.879089 0.085575 0.113336 3.35307 -2.24105 -4.56056 
414 1 0.868257 0.163723 0.2223 -8.8553 -4.8408 -2.14551 
415 1 0.937481 0.0521008 0.211574 1.52573 -0.553961 0.371306 
416 1 0.817516 0.0370251 0.221114 10.5695 -1.84154 7.02966 
424 1 0.743131 0.171298 0.220261 3.45344 -4.41322 7.09146 
334 1 0.694324 0.37802 -0.00532542 -0.217508 -0.312835 1.31145 
335 1 0.567512 0.373125 0.00521413 0.280517 -0.66775 -3.04729 
339 1 0.698477 0.450096 0.109137 -2.61907 5.4507 0.983537 
347 1 0.564084 0.459008 0.111314 1.18921 6.39771 -2.50578 
378 1 0.501937 0.246289 -0.00179657 12.2077 11.0052 1.42835 
380 1 0.623771 0.232911 -0.00309634 0.515181 -1.84665 6.37108 
381 1 0.629917 0.332307 0.108183 1.17839 -4.65578 -0.420843 
387 1 0.693575 0.286953 0.224528 -0.560499 9.48517 -2.36368 
393 1 0.501577 0.325388 0.103153 3.15596 -3.57942 3.4085 
394 1 0.502106 0.404312 0.213163 -0.621562 -4.11732 3.80181 
395 1 0.567717 0.294708 0.217951 7.98363 0.329797 -0.807177 
396 1 0.621337 0.408778 0.228952 0.0587511 6.93083 -5.01255 
330 1 0.941887 0.387808 -0.00304757 -4.9844 4.92109 6.64644 
331 1 0.819291 0.37675 -0.00224006 0.772957 -1.82502 -6.84083 
332 1 0.940115 0.461523 0.105521 -4.97498 5.15579 -0.0566112 
338 1 0.816747 0.453208 0.101756 -1.33428 -3.18979 2.92249 
370 1 0.757018 0.239819 -0.002588 -0.894354 6.81356 6.36556 
373 1 0.876263 0.262009 -0.010617 -2.3699 -2.17949 2.76922 
374 1 0.884261 0.338848 0.110722 8.06965 -0.470201 -8.75379 
377 1 0.944344 0.296728 0.223106 2.41768 -5.06243 4.68796 
384 1 0.764541 0.335001 0.106307 -0.515272 6.43688 2.00286 
385 1 0.758049 0.4121 0.218416 -3.25802 3.06613 2.65061 
386 1 0.815229 0.284431 0.206837 -4.90066 -0.22179 -5.66853 
388 1 0.880617 0.421541 0.22814 -2.69489 0.24659 -0.825719 
300 1 0.693856 0.632576 -0.00204781 -5.92954 1.60319 -1.0146 
307 1 0.557484 0.63672 0.001407 0.148094 -0.988755 6.58907 
310 1 0.696391 0.705925 0.0964654 -3.92703 4.67064 -2.12138 
311 1 0.559695 0.71089 0.110371 1.78915 3.29261 9.81724 
333 1 0.620511 0.507782 -0.00643212 -16.6684 2.61429 1.85527 
345 1 0.500705 0.499545 0.00165805 -1.67775 -1.98841 -0.919608 
346 1 0.495854 0.586936 0.107608 -7.12643 -2.66677 0.125832 
348 1 0.623166 0.587837 0.105202 -6.37072 -1.05484 -5.3819 
349 1 0.62946 0.659813 0.214286 1.64103 -1.09869 0.276464 
350 1 0.68328 0.527757 0.214698 1.11257 5.52503 0.301897 
351 1 0.556578 0.536869 0.219198 -6.04097 -7.07835 -3.30391 
360 1 0.497831 0.672965 0.23124 2.06286 1.86478 -1.19642 
297 1 0.928802 0.629127 0.00532902 4.13717 3.68565 -4.64446 
299 1 0.816292 0.629736 -0.00328653 -2.02909 6.00632 -0.0961517 
303 1 0.931181 0.709886 0.116626 -5.7593 1.97533 -4.39371 
304 1 0.810785 0.706659 0.114931 8.30907 4.10063 -5.70958 
329 1 0.867904 0.512326 0.000921265 2.40855 -11.4849 -4.55876 
336 1 0.744275 0.509458 -0.0026887 -0.886314 -3.37353 -0.724759 
337 1 0.749275 0.577291 0.108183 -2.16733 1.79951 -6.03402 
340 1 0.873495 0.586794 0.126124 3.77201 -0.949939 2.69113 
341 1 0.873953 0.678088 0.225219 -3.69475 -0.226288 -0.0464823 
342 1 0.938483 0.551555 0.228842 -1.64729 -3.40957 2.3731 
343 1 0.810913 0.536703 0.219767 -8.1577 3.32578 -1.48852 
352 1 0.745539 0.658017 0.214151 5.9515 1.3528 -5.02027 
292 1 0.68599 0.877304 -0.00630124 -0.288327 1.21958 -5.18247 
293 1 0.558114 0.883019 0.00490518 -5.89108 -1.38683 3.03583 
295 1 0.690253 0.958391 0.115611 4.99677 1.79658 1.01902 
296 1 0.576858 0.958465 0.115694 -10.7903 3.0989 -3.23426 
306 1 0.48708 0.762134 0.0107028 -1.26576 -0.348887 -2.73193 
308 1 0.618647 0.755501 -0.0028836 -4.0985 -4.32973 -0.556164 
309 1 0.632376 0.827816 0.116821 2.31987 6.95211 -3.27087 
315 1 0.689092 0.78635 0.226569 -3.20925 10.2791 -3.07914 
320 1 0.490752 0.843037 0.11293 -8.15727 0.168404 4.39128 
321 1 0.507849 0.921308 0.220644 1.29982 -6.03989 0.441766 
322 1 0.56449 0.802644 0.213051 0.333036 -8.03286 -1.69101 
323 1 0.638003 0.923236 0.22799 -2.62679 3.82962 -8.02111 
289 1 0.95001 0.874191 0.00229485 -1.90843 5.64627 1.02488 
290 1 0.814154 0.868757 -0.00157982 0.567038 1.6878 -5.91276 
291 1 0.937149 0.969894 0.113147 -4.781 -2.48377 1.37196 
294 1 0.802047 0.960114 0.112024 1.93542 2.37364 2.51065 
298 1 0.743328 0.74797 -0.00124308 2.44087 -1.70547 1.30799 
301 1 0.867515 0.757746 0.00521414 -5.90369 4.16006 -8.29102 
302 1 0.869684 0.846006 0.114893 -1.61807 -1.09175 -5.29864 
305 1 0.938114 0.788374 0.23334 -3.29838 -2.2393 3.51857 
312 1 0.749781 0.829851 0.103585 -2.24911 -0.483789 0.352575 
313 1 0.755968 0.906934 0.224546 -2.11622 -4.72404 -3.89728 
314 1 0.807235 0.78898 0.213523 2.67935 -5.80487 0.826061 
316 1 0.8832 0.920241 0.225078 2.25923 -8.84827 3.60152 
427 1 0.686684 0.124016 0.339498 3.05512 3.77256 -0.174685 
434 1 0.554518 0.141485 0.337107 0.832813 2.00092 -1.68168 
437 1 0.674941 0.214501 0.449871 -9.06458 -0.557466 5.57385 
438 1 0.550872 0.223598 0.448587 0.355768 -3.84628 -1.05158 
446 1 0.511813 0.00792918 0.339719 -3.35098 3.66136 -3.71973 
447 1 0.493531 0.0802518 0.446839 6.97284 13.6476 8.28267 
448 1 0.619303 0.0835823 0.453485 -0.349578 -0.79471 3.01312 
417 1 0.930383 0.123096 0.341361 -8.99388 4.72681 -0.860871 
426 1 0.81455 0.128486 0.336386 -8.73616 0.414469 1.45225 
430 1 0.937705 0.213923 0.454889 3.81344 -0.0132029 0.577155 
431 1 0.80881 0.220811 0.444855 2.40343 4.44552 -1.28793 
441 1 0.874258 0.00852425 0.331082 3.16319 5.49683 -8.45555 
443 1 0.753114 -0.00671718 0.340064 2.24938 -3.90537 1.65422 
444 1 0.748848 0.0904581 0.444854 -7.2881 -1.23489 -2.59095 
445 1 0.865836 0.0847344 0.447485 0.321522 -0.634752 -6.70411 
398 1 0.690059 0.3643 0.33104 -4.71701 -0.737862 -6.37228 
399 1 0.556323 0.379361 0.345183 0.1639 -4.96091 -2.93007 
403 1 0.687244 0.453535 0.433584 4.94703 -6.87202 1.43811 
407 1 0.567053 0.462506 0.461993 -2.74464 -5.66793 0.394078 
433 1 0.504125 0.24992 0.331255 -0.106702 3.48419 0.242508 
435 1 0.617064 0.254559 0.33445 -1.52226 -3.99667 5.64858 
436 1 0.624584 0.337075 0.439901 1.83519 4.89065 -3.43216 
440 1 0.493613 0.334201 0.443797 -1.18606 -3.15514 1.90935 
390 1 0.940885 0.383356 0.33184 -1.37689 7.50379 -4.39427 
391 1 0.813226 0.369837 0.329025 8.39244 -2.84141 -2.50783 
392 1 0.940458 0.460293 0.438715 -8.30763 -3.60456 -3.71518 
402 1 0.813041 0.44277 0.442519 4.15352 0.0920246 9.90141 
425 1 0.747986 0.23891 0.340119 6.68386 -1.36532 -1.39299 
428 1 0.870042 0.249608 0.331422 -0.726439 -3.83543 -1.83251 
429 1 0.881721 0.334253 0.440068 2.54987 3.04031 0.481806 
439 1 0.75482 0.329984 0.451197 -3.15671 -2.68528 -5.02159 
355 1 0.692812 0.62172 0.326265 -6.17447 -0.140429 4.68342 
362 1 0.556259 0.63746 0.332296 3.64632 -2.08642 -8.43899 
365 1 0.688593 0.704582 0.442493 -2.71064 1.28871 4.58123 
366 1 0.567712 0.715789 0.444147 5.78948 -1.30286 -4.80555 
397 1 0.624261 0.508252 0.329742 -1.37181 -1.24767 -2.57507 
405 1 0.50887 0.491976 0.331284 -7.81331 6.38339 -5.20695 
406 1 0.500686 0.585123 0.440133 0.542943 -3.15141 6.30596 
408 1 0.628516 0.58805 0.445615 11.5016 -12.757 3.121 
344 1 0.943743 0.626247 0.332703 -1.25007 -2.61212 -7.50342 
354 1 0.816748 0.628191 0.330753 -6.50094 -3.00872 -4.42396 
358 1 0.942991 0.701344 0.447197 0.432072 1.14434 -2.21347 
359 1 0.82192 0.7 0.449215 1.97998 -4.43891 -0.257727 
389 1 0.869601 0.504718 0.331199 1.74943 4.67564 5.38503 
400 1 0.748465 0.495349 0.328297 -2.21279 -5.46783 -0.892935 
401 1 0.759254 0.587944 0.443262 -4.76578 2.8765 -2.00447 
404 1 0.873635 0.573073 0.437336 1.29596 3.2877 -9.47457 
324 1 0.690138 0.86447 0.340363 -1.41027 -4.58041 8.50994 
325 1 0.572998 0.877542 0.334556 0.597868 -6.20462 -8.75996 
327 1 0.687224 0.956108 0.440177 6.08033 4.54164 2.16061 
328 1 0.568463 0.95735 0.450327 -3.86987 -6.25684 3.26964 
361 1 0.507894 0.762804 0.333403 -4.02275 2.52681 6.85079 
363 1 0.619566 0.740429 0.321044 3.2798 -3.77615 -1.12375 
364 1 0.62612 0.83084 0.444358 -5.77017 0.986675 6.43983 
368 1 0.50343 0.838806 0.441442 -5.63929 -2.31188 2.02973 
442 1 0.623882 1.01285 0.349646 -0.0331086 6.28745 3.66244 
317 1 0.942548 0.869871 0.337517 2.63422 5.6186 -6.92939 
318 1 0.816626 0.880631 0.334833 -0.241844 1.29043 -1.54029 
319 1 0.932498 0.958852 0.446325 2.94723 4.14791 -5.94797 
326 1 0.811327 0.967371 0.456242 4.28387 4.42655 -4.58681 
353 1 0.751092 0.74104 0.334988 3.8073 2.71078 0.522584 
356 1 0.875321 0.751441 0.341886 -6.18834 4.47472 1.16371 
357 1 0.879988 0.831715 0.444116 5.1986 1.21009 -4.66874 
367 1 0.758868 0.83376 0.441141 -3.23937 4.88162 -7.41955 
533 1 0.618702 0.174213 0.561781 3.06285 2.113 1.99125 
534 1 0.677836 0.0460952 0.558735 -3.40929 -3.22707 4.50191 
535 1 0.557964 0.029382 0.559044 -0.995052 -0.853098 7.35316 
539 1 0.690009 0.138276 0.665689 -3.72685 -0.722497 -8.95894 
545 1 0.496194 0.165742 0.558445 6.57791 -1.15821 1.75023 
547 1 0.561285 0.126993 0.669859 -3.14566 -2.13679 -3.77054 
562 1 0.610984 0.00776297 0.669269 -1.78276 -1.08939 3.491 
569 1 0.490455 -0.000493329 0.670373 -2.65628 3.33358 3.65378 
529 1 0.866274 0.154423 0.561155 -0.70235 -0.414129 4.2456 
530 1 0.938572 0.031361 0.561057 -3.0202 -2.62759 5.17093 
531 1 0.80238 0.0410612 0.558301 6.61805 1.00926 -0.481062 
532 1 0.945044 0.133476 0.665263 -1.49811 -0.176014 -1.70999 
536 1 0.747896 0.170416 0.553014 -1.44564 -2.7042 5.05243 
538 1 0.819998 0.124138 0.680829 8.63737 1.95678 -4.22892 
561 1 0.873477 -0.000605548 0.651458 -8.83543 -3.08581 4.53699 
563 1 0.737679 0.00343439 0.657152 4.76853 -4.80376 4.04275 
500 1 0.685511 0.29608 0.552231 2.47164 6.09802 8.40249 
506 1 0.497487 0.430389 0.560453 9.13044 0.169457 3.34743 
507 1 0.562715 0.30056 0.550544 -0.529556 4.94654 -1.92818 
508 1 0.628572 0.41055 0.566023 7.98282 1.63085 2.03845 
510 1 0.684764 0.381309 0.670159 6.67255 -5.4915 6.41693 
511 1 0.557833 0.377643 0.673061 5.22129 4.30632 0.199793 
546 1 0.502338 0.240652 0.666596 0.798502 -5.76344 -2.82737 
548 1 0.623967 0.256739 0.674744 4.69007 -4.85663 2.46656 
497 1 0.93545 0.277911 0.56874 -1.66393 4.74453 4.31044 
498 1 0.746532 0.41025 0.555188 0.737109 1.53773 -1.15918 
499 1 0.817571 0.302076 0.561654 8.70385 4.91913 0.395758 
501 1 0.880033 0.417293 0.550739 15.2585 -6.62878 2.1011 
503 1 0.928505 0.370157 0.659064 -3.04277 -2.28619 -0.775293 
504 1 0.812242 0.385383 0.662663 -9.94327 9.1506 -0.449448 
537 1 0.750236 0.262548 0.661051 0.15986 -4.03595 10.5049 
540 1 0.869776 0.253338 0.674442 6.9287 6.09177 -1.53537 
469 1 0.625684 0.670506 0.550781 -0.962806 -2.69528 -0.587757 
470 1 0.688861 0.544373 0.55141 3.06308 2.00684 0.482102 
471 1 0.567778 0.555335 0.555618 4.50728 1.70879 6.37378 
475 1 0.673908 0.618562 0.663608 -1.07404 -6.94394 -8.32072 
481 1 0.502094 0.675295 0.548577 4.34085 4.49337 -8.4524 
483 1 0.551837 0.62864 0.665651 2.9604 -11.4673 3.14612 
509 1 0.616407 0.502833 0.675903 -6.02937 4.56023 -0.306419 
520 1 0.507373 0.505356 0.657067 -1.09353 -2.33007 0.366537 
465 1 0.872806 0.661969 0.565337 -5.82976 6.35559 -2.54412 
466 1 0.943096 0.544465 0.542515 2.01397 -1.89036 -1.15096 
467 1 0.814389 0.526054 0.557322 3.5617 0.659346 -5.18835 
468 1 0.940797 0.616023 0.675536 6.74795 3.56021 -4.48181 
472 1 0.752565 0.665613 0.558835 -2.549 2.26254 -3.24321 
474 1 0.807175 0.635944 0.665299 8.25736 1.45939 4.63953 
502 1 0.873729 0.501828 0.672534 5.76684 3.55952 -14.9308 
512 1 0.747219 0.504784 0.661847 0.480902 2.16963 2.22598 
452 1 0.682991 0.792381 0.558249 0.183712 -3.58477 0.25029 