ITEM: TIMESTEP
1000
ITEM: NUMBER OF ATOMS
500
ITEM: BOX BOUNDS pp pp pp
0 18.144
0 18.144
0 18.144
ITEM: ATOMS id type xs ys zs vx vy vz 
2 1 0.0968687 0.101577 0.00461508 4.34015 0.660771 -4.40495 
5 1 0.207037 0.00474033 0.000577074 3.24881 -3.032 -0.30284 
8 1 0.203327 0.103546 0.0997678 0.7423 0.112646 0.588768 
23 1 0.0937188 0.205444 0.10112 1.07573 -1.15454 3.37736 
25 1 0.200434 0.201712 0.00537674 -2.2651 0.673651 -1.05557 
101 1 0.00222948 0.00589042 0.189096 -0.375464 0.205537 -2.48291 
102 1 0.102969 0.104113 0.196684 -4.07881 -6.64638 -0.497544 
105 1 0.194829 7.18392e-05 0.191695 0.172923 -1.28965 -1.04664 
125 1 0.198357 0.200879 0.198803 0.536366 -3.78812 -4.36326 
6 1 0.301912 0.103662 0.00237216 -0.243027 3.50477 -0.835038 
12 1 0.407692 0.0891007 0.0961044 -2.75129 1.52959 -2.10687 
27 1 0.303064 0.194564 0.0980733 2.08727 -0.259965 -0.246028 
106 1 0.302792 0.10581 0.185395 1.6102 -1.18769 -1.81458 
109 1 0.40278 0.00198251 0.199362 1.18547 -1.43138 -0.214486 
129 1 0.398793 0.199889 0.194984 -0.500021 -1.16099 1.55075 
31 1 0.491275 0.205204 0.0875785 0.615269 0.717768 1.45504 
110 1 0.494471 0.109901 0.195554 -0.604161 2.22551 -0.376303 
14 1 0.691604 0.10296 0.00173185 -1.05524 -1.41274 6.42493 
16 1 0.589923 0.0970997 0.0963295 1.71021 0.661578 0.671877 
33 1 0.602352 0.213661 0.000105941 -3.17548 1.62931 -1.77173 
35 1 0.696116 0.205462 0.0925475 -0.871015 0.715335 2.75425 
114 1 0.704196 0.0985331 0.193309 1.27413 2.36126 -1.5583 
133 1 0.600604 0.200857 0.202822 -2.49673 -3.02141 1.31474 
4 1 0.992861 0.104281 0.0994161 1.56541 0.170382 3.31861 
121 1 0.990001 0.201336 0.199756 -0.27712 2.89646 1.84202 
18 1 0.89967 0.0946574 0.0021204 1.16991 -0.397117 2.66853 
20 1 0.803815 0.101719 0.0931403 -0.417672 1.99028 0.878084 
37 1 0.788594 0.203114 0.00159401 -3.64698 3.42235 -0.168239 
39 1 0.900361 0.210007 0.107604 -1.28024 -1.34652 1.61072 
118 1 0.892915 0.0968584 0.190998 4.62657 -3.20677 0.37772 
137 1 0.79339 0.200058 0.198744 -2.88983 3.6259 -2.33813 
28 1 0.208217 0.299028 0.104012 1.45287 -4.0198 -2.18199 
43 1 0.0982591 0.396522 0.107284 -0.172029 1.80188 2.87125 
45 1 0.196475 0.399694 0.00672959 -3.41347 -2.28657 -3.32507 
122 1 0.100599 0.308399 0.203581 0.0226265 1.29402 2.38403 
145 1 0.203101 0.399032 0.198108 -4.86474 0.920792 0.817076 
42 1 0.100463 0.497404 0.00187846 -1.88512 -0.109454 4.70877 
44 1 0.00237987 0.495413 0.103738 -0.852589 -1.97812 -1.80034 
26 1 0.294479 0.29841 0.00176281 -2.47212 -1.50549 4.00373 
32 1 0.401097 0.293514 0.0947405 -1.46274 0.376058 -3.21692 
47 1 0.307237 0.395733 0.105715 0.0246497 1.53787 -3.73539 
126 1 0.306802 0.300697 0.200039 -2.48968 2.41479 -1.30344 
149 1 0.40257 0.40405 0.204895 -3.11663 4.36272 -1.30875 
51 1 0.492855 0.390409 0.10013 -3.36029 0.750166 0.839141 
130 1 0.49716 0.292223 0.195799 -3.053 1.834 -0.753321 
146 1 0.29354 0.496457 0.206211 -3.97219 2.52518 2.8914 
36 1 0.599389 0.298044 0.100819 3.09789 1.22107 0.627036 
53 1 0.590514 0.402629 0.00349556 -0.825325 -1.23688 2.67604 
55 1 0.691699 0.405144 0.105376 3.84454 0.792155 0.880999 
134 1 0.700345 0.300904 0.201714 -2.97099 -1.22698 -1.28674 
153 1 0.597281 0.391972 0.198654 0.952403 4.83932 -2.05436 
54 1 0.693897 0.492452 0.00215731 -3.38333 -1.43573 0.181012 
56 1 0.602279 0.495515 0.10969 1.90147 4.30786 -2.31546 
24 1 0.992498 0.307084 0.105578 0.452178 0.883625 -0.37392 
41 1 0.997195 0.392432 0.0023665 -3.81607 3.72945 2.44522 
141 1 0.997855 0.403375 0.203945 0.239049 1.60115 0.417432 
38 1 0.89948 0.299884 0.00198494 -2.15847 0.343768 -2.37284 
40 1 0.793848 0.305155 0.095435 0.206175 -0.940309 -4.83487 
59 1 0.903795 0.397323 0.0982271 -1.14994 2.22472 -1.49541 
138 1 0.897706 0.305714 0.201219 -0.216476 -1.08604 -2.68578 
157 1 0.803727 0.402015 0.199204 1.29325 -0.0394711 0.143051 
58 1 0.904153 0.49485 0.00765026 -1.20984 -0.029132 -5.27995 
48 1 0.19439 0.504914 0.104644 -5.217 1.05473 3.79479 
63 1 0.102698 0.596493 0.101067 0.799561 1.12461 3.47667 
68 1 0.203341 0.703588 0.0954594 -2.83177 -0.635626 -1.52859 
142 1 0.0968516 0.504102 0.210083 1.17596 0.349358 2.51777 
161 1 0.000250345 0.603416 0.206127 -0.451384 -0.359061 -1.54733 
162 1 0.110139 0.69291 0.202317 0.311338 -1.89685 2.88067 
165 1 0.198926 0.598455 0.202822 -3.48262 -3.35708 1.4062 
52 1 0.396426 0.507656 0.099765 5.01874 -4.30462 -0.238166 
67 1 0.292967 0.592916 0.100661 -1.56112 -0.38906 1.47009 
69 1 0.394035 0.601518 0.00417834 0.277131 0.424115 -2.60768 
72 1 0.392494 0.694207 0.108425 -2.01063 2.93544 -2.32439 
166 1 0.294448 0.702401 0.206815 2.82805 1.58819 2.25203 
169 1 0.397706 0.598478 0.202827 -0.0886263 -2.33164 2.1078 
50 1 0.498557 0.507459 0.00162733 -1.26575 0.769946 0.285335 
150 1 0.498308 0.500616 0.203902 1.8391 0.835363 2.02023 
170 1 0.497965 0.696853 0.197766 4.44248 -1.55521 -0.180219 
70 1 0.508681 0.697821 0.00607017 6.4466 -0.782504 -0.657594 
71 1 0.505083 0.59821 0.107468 0.493019 -2.82463 -1.09788 
73 1 0.603833 0.59646 0.00313924 -6.94466 -2.31761 2.68308 
74 1 0.70451 0.70033 0.000981038 3.15111 -0.859006 -5.08664 
75 1 0.712999 0.599774 0.111156 -2.94165 2.63488 -1.01785 
76 1 0.606754 0.692152 0.103595 0.508857 1.46188 4.21766 
154 1 0.708211 0.503606 0.202509 -2.46991 1.83191 3.31955 
173 1 0.604014 0.59483 0.204318 -1.74647 -3.50767 2.415 
174 1 0.697449 0.70612 0.208451 0.429206 3.65848 0.279069 
61 1 0.998483 0.603846 0.00315982 -2.63941 -0.731521 3.87432 
64 1 0.99538 0.698572 0.106356 -1.24533 3.55345 1.53674 
60 1 0.804655 0.500672 0.109794 -1.20222 -0.94841 -1.48543 
77 1 0.79451 0.599995 0.000148077 -0.155982 0.886193 -3.67024 
78 1 0.909177 0.700729 0.000764919 -2.33148 -5.35987 -0.536674 
79 1 0.899163 0.597654 0.102691 0.589299 3.85607 0.42146 
80 1 0.805055 0.702515 0.0981489 0.72707 -1.35783 -1.97957 
158 1 0.901365 0.50756 0.203471 3.14445 -1.91322 -1.9181 
177 1 0.808914 0.608969 0.206761 1.10189 0.480344 1.21761 
178 1 0.904769 0.712372 0.201292 7.00461 0.88081 0.195017 
3 1 0.0986619 0.998207 0.0922298 0.761168 4.62308 -2.52124 
83 1 0.0981326 0.791343 0.0986698 0.166333 -1.49807 -1.89592 
84 1 0.00946804 0.895865 0.0992724 -1.41704 -0.680353 -3.76582 
85 1 0.192675 0.797739 0.00101467 3.89567 -2.75841 -0.0390753 
88 1 0.196704 0.897463 0.0984435 2.75226 -2.32202 0.255909 
181 1 0.0121692 0.793083 0.201735 3.14067 0.909224 1.96873 
182 1 0.0994895 0.891988 0.20047 -0.973189 -1.19886 -2.03372 
185 1 0.202205 0.800363 0.19446 -1.50695 -2.37547 3.19032 
7 1 0.301099 0.994879 0.0964058 3.2493 4.66731 1.96866 
87 1 0.300266 0.798722 0.0983867 1.61716 -2.53259 -1.93197 
89 1 0.398514 0.783933 0.00662207 1.57625 1.48264 -0.491244 
92 1 0.397933 0.898667 0.101643 1.62915 1.93137 -3.12839 
186 1 0.299505 0.909438 0.19128 4.15355 -1.60014 -2.07481 
189 1 0.387175 0.805183 0.201135 4.19681 8.08129 4.16154 
90 1 0.496967 0.885429 0.00711373 2.52347 0.787042 -0.834917 
91 1 0.489051 0.795953 0.10866 -3.48266 -0.101222 -5.62903 
190 1 0.494493 0.898922 0.202707 -0.426125 0.689025 -0.973268 
11 1 0.502163 0.996122 0.10446 -1.08998 4.60273 -3.88649 
13 1 0.592623 0.992931 0.0043934 -3.75313 1.62981 1.95895 
15 1 0.692125 0.999581 0.0910739 2.22751 0.743877 -1.43262 
113 1 0.601127 0.992255 0.193555 -6.90715 0.79437 -0.632169 
93 1 0.603562 0.798253 0.00258137 -2.61494 0.0476156 3.28455 
94 1 0.705617 0.896958 0.000924018 2.2289 0.00222432 -1.96774 
95 1 0.703828 0.800401 0.101076 0.192567 -1.79887 3.60797 
96 1 0.596138 0.896191 0.0946834 -1.30471 -2.40025 -3.66607 
193 1 0.599991 0.801284 0.190029 3.37018 -0.507615 -2.49601 
194 1 0.69882 0.893744 0.205813 0.335551 -1.80484 -1.88187 
19 1 0.905478 0.988728 0.090341 2.80132 3.34257 -2.15399 
117 1 0.805956 0.995904 0.202237 2.10408 -0.950253 0.808994 
99 1 0.90229 0.807283 0.0984827 -3.08528 0.283149 0.145618 
100 1 0.799554 0.905341 0.102443 -2.32132 0.207986 -1.54066 
197 1 0.798221 0.805484 0.194708 -2.1847 -2.90821 -1.01852 
198 1 0.901185 0.903451 0.19295 -4.32302 -0.192027 -1.8609 
103 1 0.0935917 0.00726173 0.293964 -0.421752 5.36678 -0.933208 
108 1 0.204191 0.0984637 0.289253 0.6684 1.37113 3.73277 
123 1 0.0975745 0.204591 0.297007 1.48292 2.6371 3.48187 
202 1 0.103249 0.0983542 0.39469 -2.34412 0.70451 2.35583 
221 1 0.00331928 0.196657 0.390814 3.60731 -5.54885 -1.81772 
225 1 0.196267 0.197831 0.390592 -4.16354 -4.25505 -0.634841 
203 1 0.104597 0.0077074 0.493935 0.184653 3.62254 1.90291 
204 1 0.00538194 0.102137 0.493631 1.38133 1.34969 0.656898 
208 1 0.206797 0.104831 0.498463 2.34187 -1.22728 -0.938954 
223 1 0.0982451 0.195862 0.491618 6.05167 -1.62406 4.69425 
107 1 0.291146 0.0075547 0.296723 -4.52338 0.446485 1.00553 
112 1 0.398659 0.0938014 0.302869 -0.381236 -2.40142 0.684762 
127 1 0.299559 0.197007 0.309446 -0.12539 1.08206 -3.75748 
206 1 0.30619 0.103195 0.401104 -0.731379 -3.67795 2.08599 
229 1 0.400629 0.200391 0.392945 -1.70355 -1.83872 -1.14104 
207 1 0.300531 0.00132243 0.499609 1.88426 -0.394975 -0.953835 
231 1 0.496882 0.196095 0.499687 0.774768 1.82618 -2.31215 
111 1 0.506307 0.000537855 0.300766 -0.257391 -0.468439 1.28588 
116 1 0.603955 0.0997644 0.292758 0.161841 -0.333698 -3.03394 
131 1 0.500079 0.199745 0.300751 0.019549 -1.31084 0.442461 
135 1 0.701984 0.196318 0.298955 -3.81035 2.3576 -2.81941 
210 1 0.504023 0.105131 0.396904 -1.81622 2.43365 1.03565 
214 1 0.692594 0.100529 0.405461 -2.47845 -0.345325 -5.26052 
233 1 0.601118 0.192838 0.402605 0.341433 -2.80626 -0.373493 
104 1 0.996516 0.106144 0.288379 2.18359 3.69883 1.10467 
120 1 0.797377 0.087278 0.302344 1.1461 -1.57969 0.286168 
139 1 0.893834 0.198433 0.302832 -6.49766 2.16816 -0.245867 
217 1 0.795383 0.0026395 0.403613 1.03379 3.24661 2.55795 
218 1 0.901326 0.0943927 0.395662 -2.64875 0.496342 -1.52114 
237 1 0.800669 0.197584 0.40612 -3.6437 -1.42946 -2.989 
219 1 0.906938 0.00499176 0.494818 -1.06674 -0.932062 1.28533 
220 1 0.804205 0.0954087 0.49746 1.59136 0.458353 -2.78892 
128 1 0.202255 0.296804 0.294051 0.385536 1.57407 0.800911 
143 1 0.104563 0.397428 0.304139 -0.787605 1.04695 -2.43793 
222 1 0.0968803 0.306022 0.398508 -1.95402 -0.890255 -2.82488 
245 1 0.203575 0.399163 0.402269 -2.63933 -2.90195 -0.874043 
148 1 0.198397 0.496908 0.307134 -1.83295 2.08051 1.37082 
228 1 0.187075 0.295531 0.499792 -1.02368 1.17961 -1.91086 
243 1 0.0967303 0.403538 0.493292 1.36517 -0.112467 7.54078 
132 1 0.393224 0.293528 0.298471 -3.22332 1.65838 -0.796627 
147 1 0.302159 0.399454 0.304879 -0.184442 -1.57607 1.39831 
226 1 0.290084 0.297064 0.405262 -1.56488 -3.33982 0.585391 
249 1 0.405535 0.393315 0.400433 3.85875 3.9666 -3.44593 
151 1 0.489992 0.392974 0.304234 0.750275 3.42412 -2.13928 
230 1 0.498679 0.290385 0.397667 0.826064 -1.63476 -1.79874 
246 1 0.299226 0.497854 0.408505 1.30563 -2.80106 2.97795 
232 1 0.396012 0.300607 0.498661 0.510041 -1.48008 0.660213 
252 1 0.404579 0.496595 0.495036 -3.73731 0.0485738 -2.15717 
136 1 0.599113 0.290782 0.299326 -2.9172 -2.12176 3.33889 
155 1 0.691618 0.406666 0.307889 -1.97412 -1.4364 -0.997385 
234 1 0.700292 0.296042 0.398826 1.26802 -0.837797 -2.06899 
253 1 0.593984 0.389477 0.400339 -0.799164 1.1892 -3.67241 
156 1 0.596897 0.493187 0.288685 1.3266 0.349549 -0.592544 
250 1 0.504996 0.496077 0.394938 1.15356 0.0355062 0.670403 
254 1 0.698225 0.498801 0.396794 -0.601823 -1.66113 3.51585 
256 1 0.601056 0.498296 0.496632 6.04236 -0.884686 0.747425 
124 1 0.997998 0.302363 0.301806 0.404564 0.610076 -0.0193589 
241 1 0.994868 0.405486 0.400133 1.34232 2.9992 -1.5883 
140 1 0.797783 0.300734 0.305263 -2.07587 1.90007 -0.724149 
159 1 0.904287 0.404403 0.30376 2.33787 -3.1464 -3.48537 
238 1 0.895553 0.292931 0.402663 1.82492 0.679135 -0.568957 
257 1 0.800304 0.402179 0.396248 -4.36394 1.63191 3.25221 
224 1 0.998897 0.299896 0.49501 -0.867924 -0.998599 -0.725043 
240 1 0.801963 0.291542 0.498087 7.32941 1.50121 -2.67516 
144 1 0.00196153 0.507264 0.311248 0.039303 0.571756 1.02574 
163 1 0.103231 0.604619 0.311036 0.569603 2.29992 1.90027 
168 1 0.20153 0.702183 0.31466 2.8279 -0.221957 1.4441 
242 1 0.100317 0.503639 0.406313 -1.17735 1.32762 3.80299 
261 1 0.00189138 0.604759 0.406723 -0.396608 4.61076 2.36669 
262 1 0.0932899 0.706192 0.408642 -0.46276 3.86257 0.810216 
265 1 0.201826 0.607318 0.409932 -0.213458 3.13962 1.65945 
268 1 0.208575 0.699095 0.498106 1.47892 2.84158 -5.51066 
152 1 0.399445 0.505176 0.307833 -0.460955 0.811537 -1.09332 
167 1 0.298931 0.597247 0.311754 -2.24043 1.6963 -0.0523432 
172 1 0.400548 0.704568 0.300645 1.34931 -2.56661 -0.492291 
266 1 0.308694 0.698124 0.41261 2.93102 -3.2301 0.644953 
269 1 0.403195 0.600763 0.403061 0.101361 -0.396658 3.03304 
171 1 0.500686 0.600129 0.297195 1.67136 5.64941 -0.483388 
175 1 0.702718 0.603026 0.298913 3.68344 1.49586 1.39342 
176 1 0.595412 0.705136 0.292999 -3.16041 5.61817 1.63621 
270 1 0.501696 0.692565 0.397069 1.1816 0.876498 1.6958 
273 1 0.601236 0.598693 0.393398 5.2136 3.68535 4.8978 
274 1 0.702739 0.705914 0.399308 -4.02188 1.71996 -0.115404 
271 1 0.504376 0.599627 0.493736 2.82391 -0.860493 -3.80538 
275 1 0.706226 0.605822 0.4955 3.4751 -1.11875 0.659445 
276 1 0.598688 0.695796 0.499232 2.34044 2.63173 0.152103 
164 1 0.999589 0.712489 0.300743 1.937 0.817182 -0.120659 
160 1 0.799936 0.506278 0.300078 2.75413 -0.854329 0.513299 
179 1 0.906018 0.602447 0.305211 0.178125 -0.779284 -0.718415 
180 1 0.808457 0.712576 0.304897 0.922873 3.22123 1.93255 
258 1 0.901381 0.508334 0.400599 -1.98901 3.18321 -0.852044 
277 1 0.804445 0.608513 0.395348 -6.3972 -1.04491 0.522956 
278 1 0.904503 0.703201 0.399631 -0.145676 4.6883 0.544204 
260 1 0.797358 0.501674 0.49606 0.721425 1.20239 -1.50282 
279 1 0.900181 0.595486 0.499296 -2.61356 -1.16511 -2.27691 
280 1 0.813228 0.706492 0.497986 5.5684 0.269246 -1.83698 
205 1 0.196927 0.997019 0.399234 0.361099 0.150654 0.470595 
183 1 0.102935 0.797565 0.301611 -5.88992 -0.288644 4.98138 
184 1 0.000535208 0.897195 0.301457 3.90336 -0.73314 0.844365 
188 1 0.195059 0.910017 0.293352 -0.54831 2.36355 -0.747527 
281 1 0.00249341 0.803792 0.397837 3.43066 -2.62566 0.335622 
282 1 0.097006 0.89815 0.392865 -2.32417 -0.407619 -1.7132 
285 1 0.198708 0.810685 0.399411 0.0713828 1.48868 -1.70883 
284 1 0.00882979 0.905798 0.499328 -0.532129 1.8146 -2.79187 
288 1 0.186868 0.906091 0.492279 4.81974 3.61444 1.01734 
209 1 0.409292 0.994744 0.399264 -3.49792 -2.30304 -0.626636 
187 1 0.299348 0.808202 0.303877 1.71535 -2.43539 0.00743148 
192 1 0.386707 0.904899 0.303667 1.2961 -0.175254 1.47163 
286 1 0.297393 0.91296 0.400996 0.361604 -0.412674 -0.210531 
289 1 0.393244 0.804498 0.406833 1.74559 -0.130223 -1.9283 
191 1 0.496347 0.798679 0.3047 3.46247 -0.758426 -1.18068 
115 1 0.698509 0.997601 0.294639 -2.72886 1.71393 0.41861 
213 1 0.607767 0.998859 0.403771 -3.79757 -1.62168 -2.83321 
195 1 0.699497 0.802133 0.304692 4.75326 0.0844044 -0.405859 
196 1 0.592692 0.898044 0.288843 -0.452186 0.488841 -2.41628 
290 1 0.502896 0.896714 0.395725 3.58461 1.55566 -0.261626 
293 1 0.597293 0.795766 0.39951 0.401449 1.54194 1.17202 
294 1 0.692421 0.90287 0.399292 1.16989 -2.44122 1.13177 
291 1 0.501995 0.795984 0.494196 0.279855 -1.11058 -0.654353 
295 1 0.694126 0.806693 0.496148 -0.345636 0.690789 -2.90837 
201 1 0.997985 0.998473 0.40094 -1.78103 1.28973 -2.17153 
119 1 0.90876 0.996306 0.296552 5.95493 0.478862 4.61239 
199 1 0.904083 0.815124 0.301811 0.0150625 3.99366 -0.44667 
200 1 0.804651 0.901708 0.307107 -2.11934 0.733279 -4.65614 
297 1 0.804025 0.802615 0.39795 -1.45392 -1.21179 -0.271956 
298 1 0.89859 0.906407 0.409075 -3.16015 -1.88654 -2.94181 
299 1 0.903649 0.813963 0.496442 1.06657 -0.716878 2.10589 
300 1 0.7969 0.899347 0.495122 2.48322 0.241263 -5.94965 
302 1 0.106042 0.0927144 0.603993 -1.91589 0.700538 -1.42895 
305 1 0.202203 0.00573682 0.602563 2.00422 -1.9113 0.499577 
308 1 0.206484 0.0972542 0.705995 -4.02783 1.97863 -4.3821 
321 1 0.00392055 0.193318 0.600953 -1.36112 2.24035 0.900681 
323 1 0.100382 0.198673 0.699534 1.34963 2.19341 4.3869 
325 1 0.195961 0.193652 0.599474 0.0960728 -2.00342 -2.78081 
212 1 0.400261 0.0995684 0.505779 1.54266 1.4431 2.59716 
227 1 0.29241 0.202945 0.505235 2.16886 -1.69532 4.21035 
306 1 0.301068 0.100897 0.598248 4.91329 -2.72532 2.51912 
307 1 0.29973 0.00805192 0.705986 -1.11212 2.18071 -2.28511 
312 1 0.404155 0.0953998 0.701916 -0.158541 -0.450583 -0.818051 
327 1 0.295726 0.192696 0.706497 -2.36943 -3.65399 -1.14158 
329 1 0.401497 0.204338 0.604795 1.31453 4.43609 2.88888 
310 1 0.49818 0.101289 0.601284 7.90116 -2.28142 3.79051 
331 1 0.498618 0.197588 0.707475 0.843986 -1.97868 -3.65614 
211 1 0.500436 0.00413906 0.505389 0.535396 0.8099 -3.09656 
216 1 0.595297 0.100974 0.50723 4.21538 1.5309 1.04946 
235 1 0.701294 0.190634 0.502114 2.00278 0.208778 -3.19501 
313 1 0.597169 0.00266817 0.600256 0.601455 3.12829 1.34026 
314 1 0.694458 0.0987861 0.595148 2.45375 0.999806 -0.639178 
315 1 0.703063 0.00237493 0.703285 3.34104 -1.46911 2.03578 
316 1 0.599074 0.102851 0.710426 -0.973092 0.217792 -2.69759 
333 1 0.601598 0.199421 0.604252 -0.0280562 1.12677 -0.47252 
335 1 0.697176 0.201775 0.697072 -0.227351 -5.6451 1.60603 
304 1 0.998076 0.0977157 0.702897 0.201303 -2.60558 -1.88214 
239 1 0.898419 0.186014 0.508279 -5.43372 2.30618 1.39114 
317 1 0.803088 0.0109646 0.59881 1.05974 2.52453 -0.75676 
318 1 0.904302 0.0975018 0.612513 1.16757 2.81941 2.94971 
320 1 0.795577 0.101525 0.701581 0.731628 -1.34179 -4.81762 
337 1 0.797942 0.195248 0.598958 2.08448 2.23462 -2.33758 
339 1 0.903459 0.202707 0.697701 -0.422493 1.09288 -1.9054 
322 1 0.0928091 0.2994 0.598513 -1.05243 0.363625 -0.514567 
324 1 0.00104341 0.297731 0.702479 0.168132 0.439421 3.2451 
328 1 0.201482 0.296552 0.688197 3.53879 2.8738 0.677347 
341 1 0.0034038 0.396093 0.601614 -2.16884 -0.610223 2.14467 
343 1 0.106072 0.395386 0.694411 -2.29945 -0.138864 4.14196 
345 1 0.198604 0.399662 0.593094 2.33596 0.295043 2.34784 
348 1 0.198772 0.491919 0.691726 -4.1976 0.279671 -3.96316 
247 1 0.291571 0.39572 0.505394 0.0252244 -2.89221 2.91653 
326 1 0.295791 0.290697 0.596729 -1.14223 -2.36597 5.62309 
332 1 0.395554 0.290857 0.711524 -0.187346 0.192446 1.46859 
347 1 0.294047 0.394442 0.69358 -2.47824 -4.51997 2.0275 
349 1 0.402359 0.39291 0.603595 -2.39389 4.93639 1.62187 
346 1 0.302229 0.499716 0.599585 -0.54224 -0.316123 -0.222207 
352 1 0.400811 0.499975 0.702802 -0.992289 0.499864 1.63211 
350 1 0.496455 0.494841 0.607438 -2.81489 -1.48679 3.13898 
236 1 0.597627 0.297782 0.502522 2.08088 -1.33545 -1.2919 
251 1 0.501123 0.396061 0.500838 -5.47548 -3.66742 2.03051 
255 1 0.702922 0.394736 0.506492 2.94594 -2.27252 0.677789 
330 1 0.504032 0.300578 0.601564 -1.9333 2.4217 -1.3462 
334 1 0.710433 0.294679 0.601515 1.25312 3.66095 -2.48944 
336 1 0.602071 0.304939 0.694674 -0.303042 -2.36826 -2.7281 
351 1 0.505948 0.407252 0.705814 -0.177366 2.87929 1.88828 
353 1 0.601604 0.394866 0.599564 -2.81864 -1.67694 0.316731 
355 1 0.707144 0.403484 0.694068 0.208152 -3.26572 6.5796 
354 1 0.705525 0.495909 0.59472 -3.22882 0.148211 -0.624888 
259 1 0.894247 0.397356 0.503198 -2.81782 2.1291 4.86208 
338 1 0.901918 0.293557 0.590666 0.0726097 2.8965 -3.79598 
340 1 0.798645 0.298909 0.695209 -2.15755 -3.03367 3.90888 
357 1 0.803393 0.399309 0.603313 1.49358 1.64631 -2.06464 
359 1 0.897737 0.395449 0.695078 -2.82884 -1.54478 2.07974 
358 1 0.89843 0.499323 0.596144 3.87627 3.44411 2.98356 
360 1 0.801142 0.499202 0.701523 -0.294232 1.50908 0.538229 
244 1 0.00300832 0.500482 0.501008 -0.154578 -0.121616 -3.71837 
248 1 0.199099 0.507316 0.502623 -0.939959 -1.73683 1.27135 
263 1 0.0978157 0.596356 0.50426 3.65109 0.451407 0.360282 
342 1 0.102914 0.506981 0.600014 1.22517 1.11111 0.74842 
344 1 0.00254923 0.502809 0.690963 -2.52304 0.515936 6.56483 
362 1 0.100105 0.701564 0.595908 -1.15914 -2.57947 -0.0757235 
363 1 0.0968619 0.602381 0.690862 4.5526 -1.37908 -0.133306 
364 1 0.00160064 0.699826 0.695508 2.5459 0.772816 4.19777 
365 1 0.202334 0.603724 0.600939 -1.11349 -7.20503 -3.40872 
368 1 0.197097 0.711039 0.698597 4.54233 -1.18265 2.45857 
267 1 0.300494 0.596317 0.509525 -2.34219 -2.61124 3.81206 
272 1 0.405597 0.703592 0.501964 1.88452 -2.07016 -1.94257 
366 1 0.297773 0.704071 0.599943 -0.927457 3.23648 -4.42832 
367 1 0.298085 0.599319 0.6944 1.47527 0.653023 2.14054 
369 1 0.400633 0.599177 0.600445 -3.22007 -0.628222 6.22277 
372 1 0.407054 0.69964 0.698722 -0.922892 -2.80019 -0.831546 
356 1 0.60586 0.501336 0.696593 -0.284718 2.37813 4.46317 
370 1 0.501198 0.699283 0.599364 0.882728 -1.08908 2.42141 
371 1 0.502043 0.602816 0.696106 -2.58895 0.685231 -0.696024 
373 1 0.610653 0.594835 0.59393 -2.05681 -2.6876 -1.15897 
374 1 0.701412 0.708237 0.586967 1.23421 -3.24118 -1.38554 
375 1 0.704103 0.599878 0.690886 9.33602 -4.77082 3.16836 
376 1 0.60688 0.691497 0.693921 -2.41383 -1.15223 0.0197866 
264 1 0.992188 0.702288 0.502019 4.85997 0.157163 -1.382 
361 1 0.99464 0.600234 0.589499 5.00953 -3.74262 0.863887 
377 1 0.803275 0.598554 0.590762 0.399311 0.786712 0.051552 
378 1 0.910367 0.698796 0.596773 4.79201 -2.34628 -5.112 
379 1 0.904126 0.598296 0.694261 -4.12659 -4.6555 0.675121 
380 1 0.80977 0.697841 0.697187 0.919583 3.39119 1.42228 
303 1 0.0958459 0.998939 0.698595 5.3815 0.177826 -1.1032 
283 1 0.101971 0.804476 0.502246 2.05053 2.55019 -2.12979 
381 1 0.00516106 0.800708 0.59917 -0.770125 0.964003 -1.77361 
382 1 0.0985775 0.910534 0.601299 -1.13268 -2.88525 -3.84917 
383 1 0.0994759 0.810954 0.694521 2.52062 -1.36576 -1.34928 
385 1 0.204416 0.804244 0.598842 0.558345 -3.48465 2.5944 
388 1 0.211455 0.908584 0.697226 -4.65509 0.546569 2.30976 
309 1 0.395803 0.999645 0.600459 -0.445293 -5.17125 -1.50711 
287 1 0.299356 0.803617 0.501447 -4.53295 -2.76742 -2.76333 
292 1 0.403739 0.900656 0.503221 -1.49198 1.57172 3.85046 
386 1 0.302562 0.906803 0.601349 -0.134394 1.00449 -0.299096 
387 1 0.314016 0.803968 0.70653 0.759574 -3.57141 -3.47509 
389 1 0.399963 0.804771 0.600878 2.1562 -1.04552 -1.90108 
392 1 0.399439 0.907082 0.707569 0.765003 -0.160422 0.246087 
390 1 0.499051 0.903249 0.607008 -0.996131 -0.262082 3.28938 
391 1 0.49943 0.805596 0.706629 0.780051 2.29059 1.98691 
215 1 0.704464 0.994369 0.507252 1.33209 -1.18138 0.206626 
311 1 0.50407 0.999612 0.702789 -0.487476 0.955048 1.84527 
296 1 0.599809 0.89958 0.506068 -0.277837 2.23425 -0.842969 
393 1 0.591035 0.790547 0.59697 1.4661 -1.31317 4.97199 
394 1 0.706111 0.89344 0.596541 4.98411 0.91861 -3.80783 
395 1 0.697861 0.789126 0.694132 0.979772 0.0508505 -0.303273 
396 1 0.606082 0.894325 0.701897 3.90074 1.10636 2.80161 
301 1 0.997479 0.999929 0.599262 0.0136911 0.436332 2.71533 
319 1 0.896568 0.99462 0.704269 0.941357 -2.00979 -4.0213 
384 1 0.992386 0.902127 0.694951 2.27329 -2.01336 1.37674 
397 1 0.809195 0.795528 0.601609 -0.91048 -0.15787 2.66823 
398 1 0.897178 0.906241 0.600791 0.183033 1.35339 -2.35048 
399 1 0.910168 0.790554 0.69952 -0.207884 -1.89032 -3.84419 
400 1 0.793455 0.888886 0.693889 5.31636 0.550559 2.35422 
21 1 0.0013306 0.204985 0.998644 -2.52817 0.537972 -0.312799 
402 1 0.0949226 0.102356 0.806997 3.77304 0.76535 -4.7768 
404 1 0.00373896 0.108997 0.905984 0.262709 0.209598 2.42239 
408 1 0.199302 0.0954144 0.904616 -0.311022 -1.98151 -1.89399 
423 1 0.0967058 0.205077 0.906283 -4.3791 1.98525 -0.256696 
425 1 0.196899 0.208838 0.80498 1.66956 3.02276 0.218446 
29 1 0.399917 0.191761 0.997975 -3.78001 2.97056 1.52839 
406 1 0.295424 0.100057 0.813412 1.64625 -3.19141 -2.69413 
412 1 0.400098 0.0987955 0.904472 1.23966 -3.04409 0.988436 
427 1 0.298574 0.204899 0.899887 -1.22962 -4.03964 0.0423764 
429 1 0.388969 0.196482 0.798191 1.1224 7.86171 2.5956 
410 1 0.497872 0.0967106 0.807615 1.87749 -1.55069 -1.77592 
10 1 0.506295 0.105396 0.998161 1.58501 -5.80283 1.72707 
411 1 0.510017 0.000864453 0.905452 -0.927295 -0.459245 -2.02196 
413 1 0.596413 0.0016255 0.801039 -2.86832 0.349677 0.336888 
414 1 0.700898 0.104796 0.799784 -1.99382 -0.423355 1.71597 
415 1 0.687109 0.00837491 0.903677 -0.909556 0.860824 -1.06786 
416 1 0.598143 0.109189 0.903032 -0.743191 -2.64958 -0.623678 
431 1 0.506108 0.202377 0.894854 -1.00781 -3.42314 0.179387 
433 1 0.595461 0.202171 0.803749 -1.11466 -0.548432 -0.699268 
435 1 0.693553 0.209106 0.903869 2.10282 -0.419281 -0.426259 
17 1 0.800255 0.000229153 0.995046 -3.04653 1.20048 -0.617681 
401 1 0.994205 0.00282146 0.798917 -2.0073 -2.03691 -1.12584 
421 1 0.991767 0.1985 0.801365 -3.99521 -0.521691 0.0681806 
418 1 0.893396 0.0987781 0.798354 -0.315091 -3.248 -3.27779 
419 1 0.898449 0.00340815 0.893988 -0.637035 0.196153 -4.24563 
420 1 0.788459 0.108412 0.902655 -2.11794 -2.20962 -4.37795 
437 1 0.79446 0.205011 0.793604 -0.656938 -2.67934 -1.4582 
439 1 0.892997 0.19902 0.904075 -1.01214 2.90352 1.53133 
22 1 0.0927965 0.304141 0.999619 -4.6338 -1.54469 -3.6876 
422 1 0.0994616 0.301441 0.793847 -1.28626 -4.58147 0.306104 
428 1 0.195543 0.308778 0.908698 0.0943185 -0.763925 2.2931 
443 1 0.0992502 0.400235 0.900446 -0.986262 -1.68971 -3.84716 
445 1 0.2005 0.392961 0.796861 -3.63175 -0.904307 1.1783 
442 1 0.102908 0.493965 0.789673 -6.53469 -1.54163 3.37838 
448 1 0.191033 0.495159 0.896766 0.774969 -1.14919 -0.86448 
49 1 0.397366 0.411034 0.999116 1.78194 -2.84617 -0.166084 
30 1 0.492131 0.306403 0.98107 -0.0815974 -1.00477 -4.52561 
46 1 0.281305 0.499639 0.992782 2.51015 -0.853517 2.69791 
426 1 0.298533 0.301183 0.799215 1.87956 -4.71296 -2.28811 
432 1 0.400032 0.303029 0.904255 -0.19814 -2.31484 -2.297 
447 1 0.301112 0.406855 0.905895 5.29692 2.89379 1.91348 
449 1 0.399433 0.399372 0.800411 -2.3158 -0.0596019 0.195023 
451 1 0.495029 0.412392 0.895662 -0.0597126 1.45842 -4.26061 
446 1 0.290295 0.49132 0.787418 -1.16401 6.79466 3.43274 
34 1 0.702255 0.315547 0.994953 4.03234 -1.19757 2.8517 
430 1 0.50234 0.302415 0.806782 0.341401 -2.39601 0.210436 
434 1 0.69616 0.304403 0.800399 -4.35435 3.03302 1.60544 
436 1 0.593275 0.314159 0.89994 -0.590856 0.0337332 0.0475894 
453 1 0.606118 0.403153 0.796771 -2.76537 -0.338039 -0.203199 
455 1 0.706622 0.406637 0.898465 -3.25885 0.0469861 -2.76897 
454 1 0.705927 0.496484 0.797119 -1.73205 -2.78264 -1.61368 
57 1 0.798846 0.41075 0.997028 4.58003 -1.92889 -1.25514 
424 1 0.992771 0.29792 0.898242 -1.82149 -1.69558 0.102888 
441 1 0.996988 0.400074 0.798169 -2.36668 -0.359719 -0.889254 
438 1 0.892152 0.295617 0.79385 1.65532 -1.33991 -1.44774 
440 1 0.80246 0.301899 0.901648 -0.909856 1.92458 -3.68747 
457 1 0.800584 0.401448 0.799654 -3.09536 -2.4974 -7.05017 
459 1 0.899898 0.400422 0.897053 -1.07013 1.59091 -0.0996523 
444 1 0.997025 0.499204 0.903299 -0.184499 -1.1648 -0.0367285 
458 1 0.902762 0.494368 0.797365 3.07104 1.67681 0.491598 
62 1 0.103156 0.70284 0.993569 -3.34981 -1.81815 -0.693525 
65 1 0.191859 0.601698 0.993946 1.86526 -2.81595 -1.11789 
461 1 0.00349762 0.59709 0.792872 3.92669 2.64872 2.73944 
462 1 0.102483 0.697383 0.792947 -2.19844 -2.24517 3.69855 
463 1 0.0989297 0.592711 0.894133 1.53563 -1.40342 2.274 
464 1 0.00608969 0.698487 0.891378 0.352271 0.365019 2.49148 
465 1 0.194007 0.592107 0.792801 1.97885 -1.165 -1.81804 
468 1 0.206618 0.703224 0.899779 -0.639903 2.09163 5.67169 
66 1 0.307615 0.693372 0.993824 -2.76023 -3.70888 -2.40528 
452 1 0.401384 0.511638 0.898191 1.76527 -1.38676 3.15104 
466 1 0.301891 0.691853 0.799491 -0.346153 2.09634 -0.971844 
467 1 0.291794 0.598243 0.892806 1.81433 -1.11195 -0.277416 
469 1 0.392473 0.599215 0.792153 -2.49649 -1.05512 5.24596 
472 1 0.407269 0.69437 0.895327 3.13922 -0.157659 3.18222 
471 1 0.496808 0.604164 0.90075 1.04807 1.4525 0.236648 
450 1 0.503059 0.503714 0.799179 4.00775 1.66083 -0.291731 
456 1 0.597655 0.505851 0.899939 -4.06362 -2.75948 -1.53574 
470 1 0.50812 0.697818 0.788974 0.58672 -1.42302 3.27278 
473 1 0.596555 0.597434 0.803435 3.16907 -1.5976 -0.0921766 
474 1 0.699086 0.69638 0.801914 2.38284 4.93931 1.07434 
475 1 0.697272 0.599639 0.899252 -3.26852 -2.36237 0.577922 
476 1 0.604479 0.703298 0.898501 0.958027 -3.0499 -0.979279 
460 1 0.802153 0.50298 0.903495 -0.634156 0.324447 -3.67615 
477 1 0.796388 0.597847 0.795997 -2.8803 0.724324 -1.13149 
478 1 0.905811 0.689534 0.801511 -2.17955 -1.52618 2.93496 
479 1 0.902526 0.596809 0.905105 2.06386 2.70143 -0.533969 
480 1 0.80041 0.692498 0.896529 -1.87817 0.457491 3.88331 
82 1 0.0980881 0.89762 0.998871 -3.58036 1.60834 0.0766907 
403 1 0.0999404 0.992576 0.901604 -2.54055 2.89561 -0.67749 
405 1 0.20628 0.994027 0.801928 3.12129 -7.45573 3.06126 
481 1 0.00428111 0.803065 0.803731 1.12859 -1.82343 -1.23798 
482 1 0.0994699 0.899851 0.792578 3.78803 2.66632 4.32944 
483 1 0.105967 0.804046 0.89656 -0.411972 5.50451 -1.8539 
485 1 0.20195 0.804212 0.800726 -1.01554 -0.483072 2.87084 
488 1 0.20747 0.899131 0.904206 2.81811 -0.848996 0.197544 
9 1 0.402675 0.999312 0.994926 1.12876 4.62333 -2.16012 
86 1 0.302494 0.895722 0.99765 -1.59698 3.21571 -1.90075 
407 1 0.305702 0.997889 0.89418 -0.852352 0.841015 -0.973618 
409 1 0.402752 0.991603 0.802307 0.672592 0.710496 0.133103 
486 1 0.308048 0.893665 0.815675 -3.08955 3.00084 0.929097 
487 1 0.30441 0.793192 0.898548 -1.8407 2.66929 -0.738004 
489 1 0.402746 0.792194 0.798804 -1.88244 0.65975 4.21571 
492 1 0.403973 0.885365 0.906251 0.492001 -0.761963 3.15473 
490 1 0.502907 0.90139 0.81065 -3.17933 0.177329 -4.0688 
491 1 0.505952 0.798653 0.908502 0.671247 -0.0393707 0.00860977 
493 1 0.598935 0.79642 0.802138 -0.522435 1.51989 -2.75142 
494 1 0.701384 0.899808 0.80103 -2.39803 -1.03425 0.117779 
495 1 0.702307 0.797596 0.901718 -2.63479 4.22077 -2.38387 
496 1 0.605513 0.893793 0.900422 -2.37373 -1.7867 0.226954 
1 1 0.997553 0.996567 0.995255 1.79631 -2.59724 -0.486037 
81 1 0.99907 0.79993 0.997101 -0.372465 -3.21142 3.38117 
97 1 0.801623 0.792854 0.999419 3.70149 -1.60647 3.01055 
98 1 0.903819 0.894205 0.999709 0.196811 1.53052 5.52414 
417 1 0.798235 0.999646 0.803319 -0.770789 2.12278 0.686297 