ITEM: TIMESTEP
4
ITEM: NUMBER OF ATOMS
4
ITEM: BOX BOUNDS pp pp pp
0 3.6288
0 3.6288
0 3.6288
ITEM: ATOMS id type xs ys zs vx vy vz 
1 1 0.998886 0.996644 0.999615 -1.00792 -3.01568 -0.339061 
2 1 0.49709 0.504613 0.997675 -2.6219 4.14968 -2.08919 
3 1 0.501833 0.999727 0.502627 1.65674 -0.234648 2.36111 
4 1 0.00219101 0.499016 0.500084 1.97308 -0.899352 0.0671387 
