ITEM: TIMESTEP
1002
ITEM: NUMBER OF ATOMS
500
ITEM: BOX BOUNDS pp pp pp
0 18.144
0 18.144
0 18.144
ITEM: ATOMS id type xs ys zs vx vy vz 
2 1 0.0973527 0.101649 0.00412758 4.43735 0.645291 -4.43678 
5 1 0.207387 0.00439483 0.000543553 3.09914 -3.23311 -0.305039 
8 1 0.203394 0.103551 0.0998277 0.472574 -0.00899186 0.494472 
23 1 0.0938415 0.205319 0.101495 1.14932 -1.10172 3.42109 
25 1 0.200175 0.201785 0.00525204 -2.43507 0.640554 -1.20655 
101 1 0.00218706 0.0059028 0.188832 -0.394127 0.0142937 -2.31855 
102 1 0.102511 0.103381 0.196623 -4.23066 -6.62484 -0.607208 
105 1 0.194849 -6.75449e-05 0.191579 0.194197 -1.23867 -1.06229 
125 1 0.198422 0.200466 0.198321 0.636311 -3.71233 -4.37845 
6 1 0.301882 0.104036 0.00227188 -0.306137 3.27084 -0.985212 
12 1 0.40738 0.0892816 0.095867 -2.90333 1.75417 -2.198 
27 1 0.303297 0.194559 0.0980387 2.13091 0.176915 -0.380278 
106 1 0.302972 0.105657 0.185225 1.66087 -1.58644 -1.27166 
109 1 0.402906 0.0018238 0.199346 1.10424 -1.44583 -0.0825549 
129 1 0.398735 0.199758 0.195165 -0.552192 -1.21524 1.71681 
31 1 0.491368 0.205275 0.0877504 1.07457 0.573074 1.65982 
110 1 0.494416 0.110135 0.19552 -0.393446 2.01484 -0.239042 
14 1 0.69149 0.102802 0.00244218 -1.01674 -1.44276 6.45426 
16 1 0.590126 0.0971858 0.0964164 1.97128 0.902146 0.907296 
33 1 0.60199 0.213835 -9.53875e-05 -3.39504 1.52004 -1.87914 
35 1 0.69602 0.205534 0.0928701 -0.865128 0.596932 3.09577 
114 1 0.70433 0.0987895 0.193134 1.17013 2.28827 -1.62064 
133 1 0.600332 0.200517 0.20295 -2.45145 -3.12972 1.00704 
4 1 0.993042 0.1043 0.0997761 1.72272 0.179689 3.20695 
121 1 0.989986 0.201663 0.199964 0.0058671 3.03547 1.92254 
18 1 0.8998 0.0946264 0.00240462 1.18269 -0.165018 2.48547 
20 1 0.803758 0.101935 0.0932403 -0.621493 1.91193 0.936752 
37 1 0.78821 0.203493 0.00157199 -3.31393 3.44287 -0.2335 
39 1 0.900204 0.209848 0.107761 -1.56598 -1.54476 1.24474 
118 1 0.893429 0.0965077 0.191052 4.68265 -3.15334 0.59312 
137 1 0.793081 0.20046 0.198484 -2.69897 3.66461 -2.36386 
28 1 0.208363 0.298584 0.103771 1.18662 -4.02576 -2.17787 
43 1 0.0982438 0.396729 0.107591 -0.106902 1.94844 2.6851 
45 1 0.196098 0.39944 0.00636923 -3.42311 -2.31274 -3.21005 
122 1 0.100595 0.308524 0.203841 -0.0909395 0.974553 2.32187 
145 1 0.202562 0.399137 0.198204 -4.91194 0.979828 0.923102 
42 1 0.100246 0.497392 0.00239764 -2.0404 -0.116972 4.70554 
44 1 0.00228712 0.495205 0.103538 -0.830635 -1.79757 -1.81944 
26 1 0.294223 0.29825 0.00220129 -2.17468 -1.39098 3.9444 
32 1 0.40092 0.293571 0.0943817 -1.73843 0.659135 -3.29 
47 1 0.307236 0.395915 0.105292 -0.0426572 1.77344 -3.93026 
126 1 0.306519 0.300958 0.199895 -2.633 2.31304 -1.30131 
149 1 0.402222 0.404528 0.204746 -3.21145 4.3092 -1.39119 
51 1 0.492488 0.390506 0.100221 -3.28073 1.00838 0.805713 
130 1 0.496824 0.292432 0.195726 -3.04844 1.95345 -0.580165 
146 1 0.293114 0.496743 0.206528 -3.76068 2.65055 2.85459 
36 1 0.599726 0.298185 0.100886 3.01583 1.34996 0.595953 
53 1 0.590426 0.402494 0.00378903 -0.782164 -1.2183 2.64757 
55 1 0.692144 0.405217 0.10547 4.22637 0.540657 0.810717 
134 1 0.700019 0.300772 0.201573 -2.93161 -1.16679 -1.25638 
153 1 0.597377 0.392507 0.198438 0.802575 4.85227 -1.86428 
54 1 0.693528 0.492309 0.00217963 -3.30189 -1.15353 0.220743 
56 1 0.602476 0.496003 0.109428 1.66161 4.54916 -2.43672 
24 1 0.992571 0.307165 0.105537 0.861851 0.580832 -0.374634 
41 1 0.99678 0.39286 0.00262595 -3.70963 4.03099 2.25822 
141 1 0.997883 0.403555 0.203998 0.273464 1.66446 0.542609 
38 1 0.899232 0.29992 0.00171976 -2.33165 0.305019 -2.43527 
40 1 0.793876 0.305053 0.0949088 0.300776 -0.891693 -4.70534 
59 1 0.903648 0.397581 0.0980721 -1.52195 2.44056 -1.31479 
138 1 0.897675 0.30559 0.200935 -0.35013 -1.15107 -2.46521 
157 1 0.803864 0.402007 0.199229 1.18547 -0.107222 0.318782 
58 1 0.904017 0.494859 0.00705981 -1.26097 0.190943 -5.42838 
48 1 0.19382 0.50501 0.105059 -5.12759 0.688528 3.73683 
63 1 0.102774 0.596631 0.101449 0.563131 1.37854 3.44395 
68 1 0.203031 0.703502 0.0952936 -2.79832 -0.927058 -1.47605 
142 1 0.0969843 0.504135 0.210357 1.22682 0.248895 2.45067 
161 1 0.000204536 0.603379 0.205954 -0.378478 -0.326963 -1.59031 
162 1 0.110165 0.692711 0.202636 0.152297 -1.71148 2.90301 
165 1 0.198551 0.598086 0.202987 -3.30555 -3.34791 1.58411 
52 1 0.396981 0.507169 0.0997437 5.05676 -4.52916 -0.149035 
67 1 0.292796 0.592885 0.100823 -1.54056 -0.17344 1.46175 
69 1 0.394078 0.601557 0.00388638 0.513721 0.283713 -2.6841 
72 1 0.392274 0.694528 0.108167 -1.96494 2.89138 -2.36218 
166 1 0.29476 0.702566 0.207064 2.83421 1.41446 2.26154 
169 1 0.397689 0.598221 0.203065 -0.225597 -2.34343 2.19289 
50 1 0.498418 0.507539 0.00166308 -1.24637 0.68577 0.361622 
150 1 0.498503 0.500701 0.204116 1.70483 0.702221 1.85857 
170 1 0.498455 0.696688 0.197753 4.4439 -1.4536 -0.0740006 
70 1 0.509382 0.697732 0.00599839 6.27432 -0.839686 -0.644022 
71 1 0.505131 0.597898 0.107339 0.373551 -2.83308 -1.24771 
73 1 0.60307 0.596209 0.00343756 -6.88066 -2.23848 2.72664 
74 1 0.704846 0.70023 0.000421811 2.95188 -0.942737 -5.05549 
75 1 0.712661 0.600069 0.111033 -3.18608 2.72266 -1.20637 
76 1 0.60681 0.692319 0.104059 0.515942 1.57463 4.20375 
154 1 0.707931 0.503799 0.202881 -2.60503 1.67197 3.42106 
173 1 0.603822 0.594455 0.204579 -1.74291 -3.28293 2.33553 
174 1 0.69751 0.706518 0.208472 0.677629 3.55327 0.107192 
61 1 0.998205 0.603757 0.00358602 -2.39411 -0.899817 3.85734 
64 1 0.995255 0.698961 0.106515 -1.014 3.51401 1.35169 
60 1 0.80452 0.500564 0.109613 -1.24476 -0.996102 -1.79093 
77 1 0.794503 0.600086 -0.000251725 0.0308402 0.761485 -3.58028 
78 1 0.908904 0.700137 0.000702548 -2.61035 -5.36518 -0.594312 
79 1 0.899231 0.598086 0.102733 0.64436 3.98123 0.338839 
80 1 0.805137 0.702361 0.0979391 0.762655 -1.42209 -1.82398 
158 1 0.901717 0.507337 0.203264 3.24537 -2.13082 -1.82496 
177 1 0.809032 0.609028 0.206897 1.03403 0.583971 1.24491 
178 1 0.905528 0.712462 0.201318 6.76094 0.755787 0.287181 
3 1 0.0987493 0.998722 0.0919567 0.824712 4.71802 -2.43239 
83 1 0.0981528 0.791181 0.098461 0.200305 -1.43776 -1.89089 
84 1 0.00930221 0.895789 0.0988604 -1.5902 -0.686014 -3.70325 
85 1 0.193126 0.797444 0.00100633 4.26542 -2.59323 -0.113059 
88 1 0.197007 0.897208 0.0984655 2.75325 -2.29953 0.142988 
181 1 0.0125027 0.793198 0.201944 2.90836 1.16903 1.82013 
182 1 0.0993833 0.891871 0.200244 -0.951511 -0.918058 -2.07354 
185 1 0.202037 0.800103 0.194824 -1.53215 -2.33882 3.41323 
7 1 0.301459 0.995408 0.0966158 3.26449 4.93301 1.83941 
87 1 0.30044 0.798445 0.0981702 1.5361 -2.50571 -1.99215 
89 1 0.398696 0.78411 0.00655968 1.72326 1.72012 -0.644638 
92 1 0.398118 0.898883 0.101288 1.71806 1.9879 -3.30319 
186 1 0.299955 0.90925 0.191071 3.9978 -1.81824 -1.70727 
189 1 0.38765 0.806068 0.2016 4.41145 7.95741 4.27115 
90 1 0.497242 0.885531 0.00701728 2.45454 1.07973 -0.917524 
91 1 0.488677 0.79594 0.108035 -3.2954 -0.152822 -5.69964 
190 1 0.49444 0.898994 0.202597 -0.529764 0.611573 -1.02558 
11 1 0.502034 0.996624 0.104025 -1.25195 4.50517 -4.01031 
13 1 0.592215 0.993114 0.00460119 -3.63695 1.67425 1.80774 
15 1 0.692386 0.999663 0.0909283 2.49029 0.733208 -1.20728 
113 1 0.600367 0.992355 0.19349 -6.87629 1.02301 -0.558813 
93 1 0.603278 0.798253 0.00294874 -2.53541 -0.0548805 3.37706 
94 1 0.705858 0.89696 0.000703424 2.13354 0.0346862 -2.03288 
95 1 0.703845 0.800201 0.101468 0.122464 -1.83461 3.48274 
96 1 0.596002 0.895923 0.0942913 -1.16459 -2.46341 -3.44182 
193 1 0.600355 0.801224 0.189763 3.21746 -0.578351 -2.32847 
194 1 0.698862 0.893556 0.205594 0.424744 -1.58825 -2.08136 
19 1 0.905781 0.989112 0.0901141 2.68241 3.63634 -1.95958 
117 1 0.806174 0.995802 0.20232 1.85698 -0.903564 0.686375 
99 1 0.901951 0.807304 0.0985032 -3.0741 0.0851014 0.228377 
100 1 0.799292 0.905361 0.102262 -2.44012 0.147424 -1.73439 
197 1 0.797991 0.805157 0.194609 -1.98902 -3.02117 -0.768609 
198 1 0.900721 0.903421 0.192757 -4.09671 -0.347682 -1.64459 
103 1 0.0935469 0.00784423 0.293864 -0.390874 5.19674 -0.889885 
108 1 0.204252 0.0986249 0.289673 0.439593 1.55515 3.87825 
123 1 0.0977405 0.204878 0.297384 1.53128 2.5575 3.3497 
202 1 0.102989 0.0984337 0.394941 -2.37979 0.733775 2.20493 
221 1 0.00370663 0.196049 0.390624 3.41606 -5.47575 -1.61541 
225 1 0.195805 0.197362 0.390535 -4.20276 -4.24405 -0.412052 
203 1 0.104608 0.00810717 0.494155 0.00791429 3.62517 2.09823 
204 1 0.00552798 0.10228 0.493712 1.26286 1.25283 0.812486 
208 1 0.207042 0.104685 0.498353 2.11148 -1.43855 -1.06557 
223 1 0.0989143 0.195686 0.492144 6.08493 -1.55816 4.84573 
107 1 0.290665 0.0075938 0.296831 -4.19195 0.260612 0.957629 
112 1 0.398621 0.0935423 0.302935 -0.307357 -2.3001 0.506843 
127 1 0.299544 0.197127 0.309004 -0.151991 1.09108 -4.25557 
206 1 0.306101 0.102777 0.401343 -0.877601 -3.8953 2.23233 
229 1 0.40044 0.200184 0.392841 -1.73002 -1.90619 -0.743008 
207 1 0.300737 0.00128008 0.499504 1.85234 -0.372545 -0.959008 
231 1 0.496967 0.196306 0.499437 0.772323 1.99532 -2.2312 
111 1 0.506274 0.000491449 0.300904 -0.335898 -0.372271 1.20841 
116 1 0.603969 0.0997224 0.292427 0.0765571 -0.430619 -2.96487 
131 1 0.500078 0.199594 0.30079 -0.0386586 -1.43475 0.262846 
135 1 0.701567 0.196576 0.298651 -3.74768 2.31509 -2.71181 
210 1 0.503817 0.105383 0.397023 -1.92716 2.11695 1.11214 
214 1 0.692336 0.100481 0.404873 -2.19416 -0.52554 -5.40121 
233 1 0.601156 0.192546 0.402562 0.347446 -2.49361 -0.415327 
104 1 0.996757 0.10654 0.288511 2.18837 3.48097 1.27602 
120 1 0.797507 0.0871227 0.302371 1.21237 -1.23767 0.208105 
139 1 0.893115 0.19867 0.302796 -6.54006 2.14401 -0.418565 
217 1 0.795497 0.00298818 0.40389 1.03436 3.07498 2.4547 
218 1 0.901035 0.094458 0.395491 -2.63269 0.689817 -1.57487 
237 1 0.800263 0.197414 0.405777 -3.7265 -1.64909 -3.22008 
219 1 0.906809 0.0048881 0.494981 -1.25819 -0.948032 1.66727 
220 1 0.804372 0.0954629 0.497157 1.42746 0.526835 -2.71927 
128 1 0.202301 0.296985 0.294147 0.443239 1.70426 0.937113 
143 1 0.104469 0.397555 0.303868 -0.916176 1.2553 -2.47508 
222 1 0.0966678 0.305912 0.398195 -1.90167 -1.10083 -2.84395 
245 1 0.203275 0.398845 0.402174 -2.80476 -2.87901 -0.849014 
148 1 0.198197 0.497145 0.307284 -1.79442 2.21886 1.35139 
228 1 0.186971 0.295663 0.499583 -0.859523 1.22311 -1.88059 
243 1 0.0968859 0.403521 0.494136 1.45513 -0.194742 7.77479 
132 1 0.392877 0.293719 0.298386 -3.06367 1.80426 -0.742542 
147 1 0.302138 0.399279 0.305032 -0.19023 -1.59029 1.38091 
226 1 0.289923 0.296697 0.405323 -1.35393 -3.31873 0.523932 
249 1 0.405942 0.393757 0.400061 3.52925 4.03468 -3.30493 
151 1 0.490095 0.39335 0.303984 1.11449 3.41077 -2.39376 
230 1 0.498773 0.290212 0.397477 0.885575 -1.49741 -1.63856 
246 1 0.299372 0.497547 0.408829 1.34242 -2.78421 2.90224 
232 1 0.396072 0.300437 0.498735 0.583895 -1.59523 0.691221 
252 1 0.404167 0.496599 0.494809 -3.73818 0.022224 -1.97493 
136 1 0.598794 0.290563 0.299699 -2.87019 -1.85838 3.41314 
155 1 0.691414 0.406486 0.307761 -1.71901 -1.82374 -1.31981 
234 1 0.700428 0.295951 0.398605 1.18783 -0.810253 -1.9354 
253 1 0.593901 0.389615 0.399934 -0.697612 1.31622 -3.66019 
156 1 0.597044 0.493231 0.288638 1.33966 0.440848 -0.253749 
250 1 0.505123 0.496084 0.395015 1.14701 0.099551 0.735199 
254 1 0.698158 0.498627 0.397192 -0.619432 -1.49448 3.69749 
256 1 0.601723 0.498195 0.496717 6.04929 -0.960711 0.789207 
124 1 0.998039 0.302429 0.301802 0.334434 0.57863 -0.0611777 
241 1 0.995019 0.405809 0.399964 1.39336 2.84944 -1.48274 
140 1 0.797556 0.300945 0.305173 -2.0431 1.93467 -0.910506 
159 1 0.904533 0.404056 0.303372 2.11118 -3.14876 -3.55214 
238 1 0.895766 0.293014 0.402599 2.03973 0.827612 -0.598376 
257 1 0.799824 0.402358 0.396614 -4.33669 1.60703 3.3765 
224 1 0.998801 0.29978 0.49493 -0.865558 -1.09645 -0.727959 
240 1 0.802764 0.291719 0.497797 7.19025 1.69998 -2.58713 
144 1 0.0019707 0.50732 0.311348 0.127569 0.44711 0.781005 
163 1 0.103292 0.604874 0.31124 0.522445 2.32405 1.81179 
168 1 0.201847 0.70216 0.314811 2.91554 -0.176487 1.28378 
242 1 0.100193 0.503783 0.406721 -1.07016 1.27922 3.59249 
261 1 0.00184735 0.605268 0.40698 -0.402112 4.62299 2.29076 
262 1 0.0932516 0.706612 0.40873 -0.228441 3.75093 0.795921 
265 1 0.201799 0.607648 0.410104 -0.274353 2.8367 1.47091 
268 1 0.208719 0.699423 0.49751 1.12879 3.11484 -5.3027 
152 1 0.399392 0.505256 0.307707 -0.497194 0.629542 -1.1946 
167 1 0.298682 0.597441 0.311738 -2.28039 1.8082 -0.230055 
172 1 0.400689 0.70428 0.300592 1.21777 -2.67029 -0.466478 
266 1 0.309011 0.697771 0.412663 2.8314 -3.17296 0.316738 
269 1 0.403202 0.600716 0.403396 0.0320909 -0.444163 3.04601 
171 1 0.500869 0.600752 0.297144 1.64684 5.63612 -0.430438 
175 1 0.703123 0.603195 0.299072 3.64649 1.5606 1.48213 
176 1 0.595067 0.70575 0.293188 -3.08779 5.5262 1.78962 
270 1 0.501824 0.692675 0.397256 1.1366 1.12839 1.68927 
273 1 0.601816 0.5991 0.393938 5.31736 3.68999 4.88659 
274 1 0.702293 0.706096 0.399297 -4.06581 1.58869 -0.0835507 
271 1 0.504683 0.599523 0.493332 2.75088 -1.03144 -3.52567 
275 1 0.706605 0.605694 0.495567 3.39986 -1.20781 0.549259 
276 1 0.59895 0.696087 0.499241 2.39963 2.64705 0.0133035 
164 1 0.999803 0.712554 0.300735 1.94445 0.366649 -0.0146491 
160 1 0.800246 0.506176 0.300139 2.86552 -1.00252 0.58924 
179 1 0.906035 0.602372 0.305124 0.132626 -0.583428 -0.842621 
180 1 0.808554 0.712921 0.305093 0.84146 3.03583 1.62552 
258 1 0.901155 0.50867 0.400509 -2.11832 2.91228 -0.791275 
277 1 0.803732 0.608393 0.395412 -6.51505 -1.13392 0.630002 
278 1 0.90449 0.703723 0.399691 -0.0908559 4.77079 0.534367 
260 1 0.797441 0.5018 0.495888 0.77451 1.0816 -1.61433 
279 1 0.899888 0.595367 0.499037 -2.69246 -0.990416 -2.4077 
280 1 0.81383 0.70652 0.497784 5.36012 0.235571 -1.82095 
205 1 0.196968 0.997055 0.399275 0.377518 0.50132 0.266619 
183 1 0.102296 0.797534 0.302156 -5.69826 -0.275273 4.90578 
184 1 0.000974409 0.897128 0.301537 4.06084 -0.47953 0.604584 
188 1 0.195005 0.910266 0.293273 -0.434252 2.14975 -0.685123 
281 1 0.00286341 0.803505 0.397889 3.27419 -2.57904 0.599526 
282 1 0.0967517 0.898119 0.392678 -2.2815 -0.16431 -1.66986 
285 1 0.198724 0.810838 0.399225 0.222828 1.2963 -1.67476 
284 1 0.00876542 0.905993 0.499022 -0.636375 1.73252 -2.74735 
288 1 0.18742 0.906485 0.492413 5.19079 3.5143 1.40999 
209 1 0.4089 0.994503 0.399203 -3.60861 -2.06317 -0.474822 
187 1 0.299524 0.807924 0.303878 1.4784 -2.60295 0.0165213 
192 1 0.386869 0.904882 0.303817 1.65281 -0.138247 1.25962 
286 1 0.297434 0.912899 0.400976 0.373822 -0.685934 -0.153512 
289 1 0.393446 0.804484 0.406609 1.92183 -0.109035 -2.12823 
191 1 0.496723 0.798598 0.304559 3.3573 -0.70687 -1.36913 
115 1 0.698205 0.997788 0.29469 -2.79013 1.67983 0.498432 
213 1 0.607328 0.998687 0.403458 -4.16044 -1.509 -2.85519 
195 1 0.70002 0.802146 0.304644 4.72255 0.153642 -0.459965 
196 1 0.592655 0.898092 0.288597 -0.228672 0.380286 -2.04977 
290 1 0.503292 0.896892 0.395704 3.59669 1.66679 -0.11207 
293 1 0.59734 0.795941 0.399635 0.460886 1.62741 1.1103 
294 1 0.69256 0.902592 0.399411 1.34495 -2.59164 1.02361 
291 1 0.502022 0.795871 0.494129 0.21348 -0.947086 -0.55874 
295 1 0.694097 0.806757 0.495825 -0.173796 0.46847 -2.94562 
201 1 0.997805 0.99862 0.400688 -1.48232 1.38563 -2.3927 
119 1 0.909411 0.996363 0.29706 5.84088 0.546294 4.60428 
199 1 0.904077 0.815547 0.301756 -0.123985 3.67711 -0.553837 
200 1 0.804407 0.901796 0.306585 -2.30133 0.858899 -4.80342 
297 1 0.80386 0.802486 0.397932 -1.54329 -1.11699 -0.0518884 
298 1 0.898248 0.906202 0.408729 -3.04779 -1.83728 -3.32537 
299 1 0.903771 0.813866 0.496688 1.15304 -1.03234 2.34384 
300 1 0.797178 0.899374 0.494476 2.55568 0.256558 -5.76676 
302 1 0.105817 0.0928036 0.603829 -2.16544 0.915742 -1.54245 
305 1 0.202429 0.00551744 0.60261 2.09347 -2.06541 0.339408 
308 1 0.206017 0.0974777 0.705516 -4.4393 2.07163 -4.31173 
321 1 0.00377241 0.193569 0.601048 -1.32507 2.3012 0.818704 
323 1 0.100531 0.198909 0.700022 1.35297 2.10155 4.46984 
325 1 0.195967 0.193434 0.599172 0.0185186 -1.93796 -2.69895 
212 1 0.400429 0.0997321 0.506052 1.50938 1.52578 2.37178 
227 1 0.292664 0.202751 0.50568 2.45056 -1.80704 3.85919 
306 1 0.301612 0.100599 0.598535 4.95356 -2.66713 2.67737 
307 1 0.299623 0.00828395 0.705733 -0.829783 2.0266 -2.30441 
312 1 0.404131 0.0953543 0.701829 -0.266532 -0.374341 -0.769882 
327 1 0.295466 0.192299 0.706359 -2.3472 -3.54252 -1.3528 
329 1 0.401641 0.204822 0.605112 1.29149 4.32805 2.85151 
310 1 0.499051 0.10104 0.601713 7.90221 -2.2428 3.98564 
331 1 0.498713 0.197375 0.707068 0.870351 -1.87902 -3.72654 
211 1 0.500493 0.00421951 0.505037 0.506709 0.651212 -3.2961 
216 1 0.595764 0.10114 0.507333 4.24444 1.4785 0.807861 
235 1 0.701511 0.190676 0.501759 1.93345 0.547496 -3.22984 
313 1 0.597244 0.00300527 0.600415 0.760759 2.9833 1.54362 
314 1 0.694737 0.0988923 0.595095 2.61291 0.927013 -0.31356 
315 1 0.703424 0.00220672 0.703502 3.213 -1.58162 1.8937 
316 1 0.598967 0.102871 0.710114 -0.966708 0.147825 -2.96041 
333 1 0.601586 0.199547 0.604196 -0.179963 1.16351 -0.550322 
335 1 0.697151 0.20115 0.697258 -0.233861 -5.70169 1.75391 
304 1 0.998107 0.0974314 0.702693 0.36796 -2.54992 -1.80521 
239 1 0.897832 0.186278 0.508419 -5.2081 2.46891 1.14737 
317 1 0.803203 0.0112251 0.598732 1.02393 2.19954 -0.651279 
318 1 0.904423 0.0978132 0.612823 1.03787 2.82706 2.6777 
320 1 0.795663 0.101379 0.701048 0.819295 -1.30289 -4.85606 
337 1 0.798179 0.195487 0.598706 2.20502 2.10109 -2.23418 
339 1 0.903403 0.202823 0.697488 -0.592735 1.00756 -1.95466 
322 1 0.0927014 0.299432 0.598452 -0.899698 0.208897 -0.589632 
324 1 0.00105712 0.297782 0.702831 0.079928 0.478265 3.13963 
328 1 0.201865 0.296865 0.688286 3.39419 2.80615 0.930058 
341 1 0.00315591 0.396035 0.601845 -2.32778 -0.447388 2.0373 
343 1 0.105808 0.395373 0.694869 -2.49634 -0.0985313 4.16567 
345 1 0.19885 0.399691 0.593354 2.12801 0.238354 2.38135 
348 1 0.19831 0.491963 0.691291 -4.16675 0.518215 -3.9256 
247 1 0.291592 0.395404 0.505708 0.358724 -2.84856 2.77367 
326 1 0.295672 0.29045 0.597359 -1.00998 -2.10946 5.79145 
332 1 0.395544 0.290897 0.711665 -0.00308304 0.54008 1.08589 
347 1 0.293788 0.393942 0.693801 -2.22568 -4.53773 1.99614 
349 1 0.402089 0.393455 0.603775 -2.50443 4.95773 1.64825 
346 1 0.302173 0.499671 0.599563 -0.475238 -0.504297 -0.176298 
352 1 0.400696 0.500025 0.702978 -1.09242 0.412233 1.56859 
350 1 0.496153 0.494686 0.607766 -2.66157 -1.3317 2.80703 
236 1 0.597865 0.297626 0.502376 2.24136 -1.50109 -1.36045 
251 1 0.500518 0.395661 0.501062 -5.49751 -3.59025 2.03576 
255 1 0.703247 0.394484 0.506552 2.93458 -2.30159 0.394737 
330 1 0.503807 0.300838 0.60142 -2.15307 2.29679 -1.26892 
334 1 0.71055 0.29509 0.601228 0.880956 3.78719 -2.7202 
336 1 0.602038 0.304669 0.694388 -0.292917 -2.51531 -2.45194 
351 1 0.50592 0.407551 0.70602 -0.33174 2.54722 1.85215 
353 1 0.601296 0.394696 0.599595 -2.76613 -1.40129 0.259307 
355 1 0.707154 0.403115 0.6948 -0.0183439 -3.42672 6.68972 
354 1 0.705165 0.495932 0.594654 -3.29368 0.267928 -0.576423 
259 1 0.893944 0.397596 0.503723 -2.67787 2.23369 4.66041 
338 1 0.901928 0.293879 0.590262 0.0987625 2.94232 -3.52358 
340 1 0.798413 0.298574 0.695647 -2.04067 -3.04094 4.0403 
357 1 0.803557 0.399489 0.603072 1.47837 1.62256 -2.30304 
359 1 0.897435 0.395282 0.695312 -2.64562 -1.49496 2.15933 
358 1 0.89886 0.499697 0.596477 3.9129 3.3364 3.05493 
360 1 0.801118 0.499374 0.701572 -0.141928 1.61397 0.353362 
244 1 0.00297958 0.500459 0.5006 -0.367375 -0.291135 -3.69145 
248 1 0.198997 0.50711 0.502762 -0.907885 -1.99833 1.24637 
263 1 0.0982243 0.596428 0.504294 3.75903 0.843444 0.248388 
342 1 0.103043 0.507084 0.600093 1.11297 0.762533 0.68143 
344 1 0.00226671 0.502855 0.691692 -2.59828 0.318977 6.6578 
362 1 0.0999813 0.701281 0.595898 -1.08565 -2.55614 -0.112741 
363 1 0.0973702 0.602231 0.690854 4.66578 -1.34363 -0.00986382 
364 1 0.00189236 0.699907 0.695977 2.74282 0.689046 4.31313 
365 1 0.202205 0.602932 0.600567 -1.21902 -7.14772 -3.33891 
368 1 0.197606 0.7109 0.698868 4.68188 -1.34283 2.46316 
267 1 0.300248 0.596036 0.509932 -2.12372 -2.47213 3.57123 
272 1 0.405801 0.703356 0.501757 1.81617 -2.19952 -1.81392 
366 1 0.297683 0.704427 0.599461 -0.708741 3.22729 -4.31402 
367 1 0.298245 0.599395 0.69464 1.43013 0.710858 2.2066 
369 1 0.400283 0.599108 0.601127 -3.12618 -0.612025 6.14708 
372 1 0.406939 0.699332 0.698624 -1.1501 -2.7847 -0.935226 
356 1 0.605828 0.5016 0.697086 -0.294562 2.41896 4.47616 
370 1 0.50129 0.699155 0.599631 0.779474 -1.22383 2.41606 
371 1 0.501761 0.602876 0.696028 -2.52732 0.414232 -0.711322 
373 1 0.610412 0.594543 0.593802 -2.3025 -2.61992 -1.16413 
374 1 0.701557 0.707869 0.586822 1.38543 -3.43993 -1.24955 
375 1 0.705138 0.599354 0.691241 9.42169 -4.73518 3.27488 
376 1 0.606608 0.691374 0.693926 -2.51084 -1.07693 0.0654645 
264 1 0.992741 0.702314 0.501853 5.16625 0.310337 -1.61386 
361 1 0.995206 0.599818 0.589612 5.25267 -3.81121 1.17955 
377 1 0.803315 0.59865 0.590782 0.333599 0.944835 0.306144 
378 1 0.91087 0.698543 0.596218 4.33089 -2.24103 -4.94791 
379 1 0.903665 0.597781 0.69434 -4.22238 -4.67875 0.750619 
380 1 0.809861 0.698209 0.697341 0.73156 3.26704 1.36629 
303 1 0.0964457 0.998964 0.698488 5.497 0.261131 -0.831079 
283 1 0.102196 0.804751 0.502012 2.02855 2.43596 -2.11603 
381 1 0.00506841 0.800824 0.598969 -0.908013 1.12508 -1.87784 
382 1 0.0984622 0.910208 0.60087 -0.95945 -3.03769 -3.93174 
383 1 0.0997577 0.810793 0.694376 2.59204 -1.54922 -1.28179 
385 1 0.204473 0.803867 0.599128 0.459955 -3.35159 2.60858 
388 1 0.21093 0.908628 0.697489 -4.85122 0.258871 2.44803 
309 1 0.395765 0.999079 0.600298 -0.249072 -5.08885 -1.39928 
287 1 0.298854 0.803321 0.501143 -4.57904 -2.59678 -2.75446 
292 1 0.403575 0.900832 0.50364 -1.4761 1.61093 3.76166 
386 1 0.302544 0.906904 0.601311 -0.206108 0.834281 -0.382229 
387 1 0.314076 0.80357 0.706137 0.333571 -3.64212 -3.64218 
389 1 0.400206 0.804651 0.600669 2.25408 -1.1225 -1.88546 
392 1 0.399526 0.907055 0.707584 0.796805 -0.333571 0.0308392 
390 1 0.498944 0.903214 0.607364 -0.948975 -0.36044 3.17326 
391 1 0.499519 0.805847 0.706837 0.822595 2.26089 1.78869 
215 1 0.704599 0.994248 0.507268 1.12152 -1.00318 0.0837362 
311 1 0.504013 0.999717 0.702991 -0.535526 0.945365 1.82619 
296 1 0.599768 0.89983 0.505973 -0.470771 2.28907 -0.888568 
393 1 0.591208 0.790423 0.597525 1.67805 -0.929241 5.09358 
394 1 0.706649 0.893546 0.59613 4.78344 0.994692 -3.62913 
395 1 0.697972 0.789138 0.694107 1.04518 0.173918 -0.164245 
396 1 0.60651 0.894453 0.7022 3.86366 1.22266 2.70882 
301 1 0.997483 0.999986 0.599559 0.0648932 0.599256 2.65558 
319 1 0.896663 0.994405 0.703826 0.778246 -1.89594 -4.02819 
384 1 0.992646 0.901899 0.695114 2.43854 -2.10463 1.57309 
397 1 0.809093 0.795513 0.601894 -0.943587 -0.130338 2.49433 
398 1 0.897195 0.906383 0.600523 0.122984 1.22686 -2.51781 
399 1 0.910133 0.790363 0.699102 -0.425235 -1.58877 -3.74434 
400 1 0.794052 0.888959 0.694164 5.49529 0.764463 2.63913 
21 1 0.00103754 0.205042 0.998624 -2.78772 0.499133 -0.0520102 
402 1 0.0953493 0.102437 0.806464 3.96437 0.702146 -4.8972 
404 1 0.00375464 0.109003 0.906245 0.0223422 -0.10326 2.30379 
408 1 0.19926 0.0952064 0.904405 -0.450018 -1.79358 -1.93311 
423 1 0.0962372 0.205296 0.906243 -4.12107 1.9943 -0.469312 
425 1 0.197082 0.209161 0.805004 1.65077 2.84301 0.220128 
29 1 0.399497 0.192104 0.998135 -3.83249 3.25246 1.37188 
406 1 0.295611 0.0997078 0.8131 1.73824 -3.13393 -2.9621 
412 1 0.400239 0.098461 0.90457 1.31909 -3.01788 0.78993 
427 1 0.298434 0.204453 0.899899 -1.3029 -4.05642 0.178535 
429 1 0.389113 0.197342 0.798497 1.49573 7.7247 2.94172 
410 1 0.498074 0.0965428 0.807414 1.78436 -1.4909 -1.88051 
10 1 0.50646 0.10475 0.998346 1.40494 -5.90863 1.63144 
411 1 0.5099 0.000807767 0.905227 -1.19617 -0.571357 -2.06615 
413 1 0.59611 0.00165934 0.801077 -2.63167 0.263103 0.343626 
414 1 0.700672 0.104748 0.799979 -2.11082 -0.460582 1.81359 
415 1 0.687021 0.00845752 0.903557 -0.692252 0.636265 -1.10765 
416 1 0.598069 0.108887 0.902959 -0.587612 -2.81183 -0.697224 
431 1 0.505973 0.201999 0.894888 -1.4368 -3.43377 0.43184 
433 1 0.595357 0.202117 0.803659 -0.786824 -0.43319 -0.922026 
435 1 0.693789 0.209061 0.903812 2.16962 -0.389881 -0.612391 
17 1 0.799915 0.000361514 0.994978 -3.11005 1.20238 -0.614379 
401 1 0.993994 0.00259148 0.798798 -1.82243 -2.13318 -1.03549 
421 1 0.991335 0.198444 0.801374 -3.83156 -0.509693 0.0946222 
418 1 0.893362 0.0984309 0.797996 -0.297289 -3.04779 -3.2271 
419 1 0.898379 0.0034278 0.893531 -0.633608 0.159386 -4.02822 
420 1 0.788236 0.10816 0.902171 -1.9329 -2.35049 -4.40433 
437 1 0.794389 0.204711 0.793454 -0.626545 -2.77335 -1.25219 
439 1 0.892887 0.199337 0.90424 -0.979652 2.82803 1.47511 
22 1 0.0922977 0.303968 0.999223 -4.4168 -1.60629 -3.49604 
422 1 0.0993165 0.300934 0.793893 -1.34582 -4.61172 0.529317 
428 1 0.19556 0.308683 0.908939 0.215762 -0.970244 2.07188 
443 1 0.0991281 0.400047 0.900017 -1.23099 -1.70946 -3.93845 
445 1 0.200096 0.392862 0.796995 -3.69361 -0.892459 1.25202 
442 1 0.102177 0.493795 0.790051 -6.71817 -1.55154 3.46984 
448 1 0.191127 0.495033 0.896663 0.918996 -1.13654 -0.990264 
49 1 0.397563 0.410716 0.999101 1.79126 -2.9172 -0.104852 
30 1 0.49214 0.306289 0.980613 0.233752 -1.06652 -3.77408 
46 1 0.281602 0.499557 0.993098 2.86997 -0.622011 3.03649 
426 1 0.298735 0.300668 0.798973 1.77131 -4.6311 -2.10357 
432 1 0.399981 0.30277 0.903978 -0.721564 -2.38305 -2.72892 
447 1 0.301693 0.407162 0.906088 5.24605 2.66784 1.59183 
449 1 0.399173 0.399369 0.800431 -2.40417 0.0117899 0.155688 
451 1 0.495026 0.41255 0.895197 0.00579631 1.39498 -4.1777 
446 1 0.290179 0.492078 0.787813 -0.943271 6.95205 3.72497 
34 1 0.702689 0.315409 0.995274 3.83175 -1.30822 2.96529 
430 1 0.502368 0.302156 0.806788 0.165584 -2.29425 -0.0921984 
434 1 0.695685 0.304732 0.800574 -4.24888 2.94573 1.57358 
436 1 0.593231 0.314158 0.899944 -0.200968 -0.0452231 0.0322329 
453 1 0.605808 0.403121 0.796752 -2.85949 -0.249255 -0.137465 
455 1 0.706249 0.406638 0.898155 -3.50864 -0.0185736 -2.85232 
454 1 0.705725 0.49619 0.796945 -1.9438 -2.55014 -1.54309 
57 1 0.799361 0.410525 0.996904 4.74785 -2.15308 -1.00003 
424 1 0.992574 0.297738 0.898246 -1.74974 -1.60535 -0.0309291 
441 1 0.996734 0.40003 0.798067 -2.23001 -0.429388 -0.943045 
438 1 0.892344 0.295479 0.793702 1.82457 -1.15237 -1.24524 
440 1 0.802356 0.302112 0.901238 -0.977353 1.92832 -3.7571 
457 1 0.800247 0.401165 0.798875 -3.01782 -2.6358 -7.07009 
459 1 0.899778 0.400596 0.897048 -1.09978 1.54869 0.00890852 
444 1 0.997012 0.499074 0.903292 -0.0553102 -1.20306 -0.0914293 
458 1 0.903097 0.494568 0.797418 3.00186 1.94052 0.464103 
62 1 0.102771 0.702629 0.993495 -3.62797 -2.01251 -0.657565 
65 1 0.192072 0.601389 0.993829 2.00137 -2.80162 -1.01672 
461 1 0.00393009 0.597375 0.79318 3.91589 2.52382 2.85084 
462 1 0.102242 0.697142 0.793361 -2.17448 -2.11914 3.81627 
463 1 0.0990948 0.592565 0.894386 1.45915 -1.24527 2.30993 
464 1 0.00612855 0.698526 0.891664 0.351296 0.342665 2.69295 
465 1 0.194232 0.59199 0.792599 2.09167 -0.974177 -1.85162 
468 1 0.206533 0.703449 0.900396 -0.908456 1.98807 5.52564 
66 1 0.307285 0.692967 0.993565 -3.21671 -3.63562 -2.28855 
452 1 0.401566 0.511478 0.898536 1.53407 -1.53038 3.11703 
466 1 0.301842 0.6921 0.799375 -0.534251 2.39421 -1.13112 
467 1 0.291999 0.59811 0.89278 1.9005 -1.30464 -0.194093 
469 1 0.392213 0.599094 0.792737 -2.21666 -1.14988 5.35596 
472 1 0.407607 0.694362 0.895679 2.98461 0.00450683 3.20634 
471 1 0.496939 0.604321 0.900776 1.32792 1.39682 0.235278 
450 1 0.503493 0.503901 0.799143 3.86058 1.73139 -0.369152 
456 1 0.597211 0.505534 0.899773 -3.98324 -2.99015 -1.47675 
470 1 0.508178 0.697662 0.789352 0.452717 -1.40593 3.58502 
473 1 0.596918 0.597263 0.803414 3.41475 -1.5061 -0.291372 
474 1 0.699349 0.696924 0.802022 2.39095 4.94283 0.881459 
475 1 0.696916 0.599373 0.899318 -3.19357 -2.45981 0.620202 
476 1 0.604577 0.702951 0.898402 0.808901 -3.24493 -0.818728 
460 1 0.802086 0.503022 0.90308 -0.589777 0.439078 -3.85165 
477 1 0.796081 0.597928 0.795876 -2.69426 0.738998 -1.06247 
478 1 0.905565 0.689371 0.801829 -2.28202 -1.43034 2.82048 
479 1 0.902752 0.597108 0.905041 2.02717 2.71744 -0.630011 
480 1 0.800205 0.692551 0.896962 -1.84523 0.48891 3.97641 
82 1 0.0976983 0.897797 0.998875 -3.48641 1.60117 -0.0041314 
403 1 0.0996622 0.992903 0.901524 -2.50518 3.03656 -0.764962 
405 1 0.206609 0.993209 0.802269 2.85014 -7.38574 3.11882 
481 1 0.00440136 0.802856 0.803582 1.05317 -1.97252 -1.46906 
482 1 0.0998902 0.900154 0.793064 3.83413 2.82417 4.47785 
483 1 0.105914 0.80465 0.896355 -0.559646 5.44985 -1.86179 
485 1 0.201841 0.804158 0.801035 -0.957178 -0.50641 2.73224 
488 1 0.207768 0.899038 0.904228 2.58128 -0.83312 0.208511 
9 1 0.402803 0.999812 0.994692 1.17429 4.44734 -2.08379 
86 1 0.302319 0.896076 0.997445 -1.56977 3.20135 -1.80893 
407 1 0.305606 0.997982 0.894096 -0.877861 0.852118 -0.548424 
409 1 0.402829 0.991701 0.802334 0.729106 1.06572 0.352106 
486 1 0.307702 0.893998 0.815751 -3.18208 3.0427 0.440888 
487 1 0.304206 0.793481 0.898475 -1.85431 2.57723 -0.57728 
489 1 0.402549 0.792271 0.799283 -1.68705 0.737129 4.47414 
492 1 0.404031 0.885293 0.906601 0.570838 -0.538042 3.19378 
490 1 0.502556 0.901402 0.810192 -3.18656 0.039954 -4.22718 
491 1 0.50602 0.798636 0.908489 0.560661 -0.278317 -0.242561 
493 1 0.598884 0.796593 0.801828 -0.386618 1.6069 -2.86909 
494 1 0.701122 0.899691 0.801044 -2.35411 -1.09857 0.130212 
495 1 0.702023 0.798061 0.90145 -2.51706 4.22146 -2.47117 
496 1 0.605249 0.893604 0.900454 -2.4088 -1.64038 0.33746 
1 1 0.997757 0.996285 0.995198 1.90398 -2.51521 -0.539473 
81 1 0.999038 0.799572 0.997468 -0.218621 -3.29069 3.2871 
97 1 0.802037 0.792688 0.999748 3.80237 -1.40215 2.95722 
98 1 0.903831 0.894377 1.0003 0.0207094 1.58136 5.24234 
417 1 0.798143 0.999879 0.803395 -0.885853 2.10164 0.686483 