ITEM: TIMESTEP
1001
ITEM: NUMBER OF ATOMS
500
ITEM: BOX BOUNDS pp pp pp
0 18.144
0 18.144
0 18.144
ITEM: ATOMS id type xs ys zs vx vy vz 
2 1 0.0971093 0.101614 0.00437177 4.39041 0.652415 -4.42259 
5 1 0.207214 0.00457035 0.000560344 3.17445 -3.13436 -0.304107 
8 1 0.203364 0.10355 0.0997991 0.607569 0.0521567 0.542884 
23 1 0.0937791 0.205381 0.101307 1.11374 -1.12825 3.40104 
25 1 0.200307 0.201749 0.00531647 -2.35036 0.658173 -1.13133 
101 1 0.00220853 0.00589924 0.188962 -0.384818 0.112306 -2.40234 
102 1 0.102742 0.103747 0.196655 -4.15813 -6.63982 -0.552734 
105 1 0.194838 1.44444e-06 0.191637 0.183144 -1.26449 -1.05451 
125 1 0.198388 0.200671 0.198562 0.587727 -3.75123 -4.37437 
6 1 0.301898 0.103853 0.00232409 -0.272954 3.38972 -0.909761 
12 1 0.407538 0.0891881 0.0959869 -2.8291 1.64144 -2.15405 
27 1 0.30318 0.194555 0.0980578 2.11045 -0.0411223 -0.314264 
106 1 0.302881 0.105739 0.185302 1.63629 -1.38736 -1.54454 
109 1 0.402844 0.00190336 0.199352 1.14451 -1.43983 -0.148365 
129 1 0.398765 0.199825 0.195072 -0.525458 -1.1902 1.63442 
31 1 0.491315 0.205241 0.0876616 0.846242 0.645796 1.55938 
110 1 0.494441 0.110021 0.195535 -0.497948 2.12199 -0.306756 
14 1 0.691546 0.102881 0.00208661 -1.03642 -1.42954 6.44411 
16 1 0.59002 0.0971395 0.0963697 1.84115 0.781246 0.788483 
33 1 0.602174 0.21375 6.7576e-06 -3.28793 1.57539 -1.82646 
35 1 0.696068 0.205499 0.0927041 -0.866981 0.656581 2.92698 
114 1 0.704265 0.0986623 0.193223 1.22249 2.3263 -1.59022 
133 1 0.600467 0.200689 0.20289 -2.47388 -3.07858 1.16197 
4 1 0.992949 0.10429 0.0995977 1.64321 0.173492 3.2657 
121 1 0.98999 0.201498 0.199859 -0.135501 2.96657 1.8826 
18 1 0.899735 0.0946387 0.00226503 1.17684 -0.281074 2.57846 
20 1 0.803789 0.101828 0.0931895 -0.520769 1.95119 0.907244 
37 1 0.788397 0.203303 0.0015839 -3.48145 3.43595 -0.199805 
39 1 0.900287 0.20993 0.107687 -1.42435 -1.44603 1.42855 
118 1 0.893171 0.0966823 0.191022 4.65735 -3.18149 0.485233 
137 1 0.793233 0.200258 0.198614 -2.7959 3.64641 -2.35181 
28 1 0.208294 0.298806 0.103892 1.32171 -4.0256 -2.18224 
43 1 0.0982505 0.396623 0.10744 -0.139417 1.87698 2.77977 
45 1 0.196286 0.399567 0.00654783 -3.4191 -2.30211 -3.26916 
122 1 0.100598 0.308466 0.203712 -0.0340903 1.13579 2.35433 
145 1 0.202832 0.399084 0.198155 -4.8918 0.950489 0.871086 
42 1 0.100357 0.497398 0.0021381 -1.96374 -0.112887 4.71002 
44 1 0.00233319 0.495306 0.103638 -0.841459 -1.88937 -1.81076 
26 1 0.294347 0.298328 0.00198287 -2.32498 -1.44866 3.97784 
32 1 0.401013 0.293538 0.0945621 -1.60165 0.518296 -3.25524 
47 1 0.307238 0.395821 0.105506 -0.00719026 1.65565 -3.83481 
126 1 0.306662 0.300829 0.199967 -2.56243 2.36414 -1.3018 
149 1 0.402397 0.40429 0.204821 -3.16433 4.33669 -1.35095 
51 1 0.49267 0.390454 0.100176 -3.32217 0.879756 0.822646 
130 1 0.496992 0.292326 0.19576 -3.05207 1.89398 -0.667225 
146 1 0.293324 0.496598 0.20637 -3.86711 2.58989 2.874 
36 1 0.599558 0.298113 0.100853 3.05873 1.28567 0.611191 
53 1 0.590469 0.402561 0.00364268 -0.803308 -1.22729 2.66234 
55 1 0.691917 0.405184 0.105424 4.03728 0.664967 0.845595 
134 1 0.700182 0.300837 0.201643 -2.95133 -1.19823 -1.27203 
153 1 0.597331 0.392239 0.198543 0.877891 4.8477 -1.95911 
54 1 0.693712 0.492376 0.00216792 -3.34508 -1.29392 0.202428 
56 1 0.602381 0.495755 0.109561 1.78065 4.43144 -2.37683 
24 1 0.992529 0.307129 0.105557 0.658492 0.731853 -0.373888 
41 1 0.996986 0.392642 0.0024988 -3.76548 3.88308 2.35364 
141 1 0.997869 0.403465 0.203969 0.256052 1.63383 0.480913 
38 1 0.899359 0.299903 0.00185321 -2.24626 0.324024 -2.40573 
40 1 0.793861 0.305103 0.0951701 0.252549 -0.916983 -4.77368 
59 1 0.903727 0.397449 0.0981471 -1.33624 2.33452 -1.40619 
138 1 0.897692 0.305653 0.201074 -0.283183 -1.11977 -2.57589 
157 1 0.803797 0.402012 0.199214 1.24018 -0.0734693 0.231456 
58 1 0.904086 0.494851 0.00735708 -1.23515 0.0789343 -5.35657 
48 1 0.194104 0.504967 0.104852 -5.1752 0.873157 3.76807 
63 1 0.102739 0.596559 0.101258 0.683093 1.25079 3.46213 
68 1 0.203186 0.703549 0.0953758 -2.81628 -0.781016 -1.5039 
142 1 0.0969173 0.50412 0.210221 1.20358 0.299014 2.48461 
161 1 0.000226436 0.603397 0.206041 -0.415572 -0.342709 -1.56935 
162 1 0.110154 0.692808 0.202476 0.232044 -1.80567 2.89227 
165 1 0.198736 0.59827 0.202902 -3.39613 -3.35531 1.4946 
52 1 0.396703 0.507416 0.0997531 5.04054 -4.42036 -0.193558 
67 1 0.292881 0.592898 0.100742 -1.55265 -0.279927 1.46602 
69 1 0.394053 0.601539 0.00403341 0.395595 0.354405 -2.64871 
72 1 0.392383 0.694368 0.108296 -1.98918 2.91612 -2.3458 
166 1 0.294604 0.702486 0.206939 2.83174 1.5016 2.25833 
169 1 0.397699 0.59835 0.202945 -0.157458 -2.33916 2.15315 
50 1 0.498487 0.5075 0.00164415 -1.25616 0.729671 0.324308 
150 1 0.498407 0.50066 0.204011 1.77281 0.768869 1.9399 
170 1 0.49821 0.696769 0.197758 4.44596 -1.50563 -0.124215 
70 1 0.509034 0.697777 0.0060341 6.36317 -0.811674 -0.651186 
71 1 0.505108 0.598054 0.107406 0.43428 -2.83097 -1.17425 
73 1 0.603451 0.596334 0.0032878 -6.91648 -2.27862 2.7064 
74 1 0.704681 0.700281 0.000700995 3.05462 -0.90256 -5.07331 
75 1 0.712833 0.59992 0.111097 -3.06598 2.68042 -1.11314 
76 1 0.606782 0.692234 0.103827 0.512334 1.51998 4.21288 
154 1 0.708073 0.503705 0.202694 -2.54039 1.75209 3.37253 
173 1 0.603918 0.594639 0.20445 -1.74627 -3.39895 2.37571 
174 1 0.697476 0.706321 0.208464 0.55429 3.60921 0.191298 
61 1 0.998341 0.603804 0.00337315 -2.51841 -0.814984 3.86645 
64 1 0.995314 0.698767 0.106438 -1.13096 3.53458 1.44615 
60 1 0.804588 0.500618 0.109708 -1.22339 -0.974513 -1.63952 
77 1 0.794503 0.600043 -5.30637e-05 -0.0626327 0.825897 -3.627 
78 1 0.909044 0.700433 0.000734528 -2.47181 -5.36525 -0.565835 
79 1 0.899196 0.597868 0.102713 0.618126 3.92188 0.379651 
80 1 0.805096 0.702439 0.0980419 0.745304 -1.38947 -1.90332 
158 1 0.90154 0.507451 0.203366 3.19697 -2.02345 -1.87117 
177 1 0.808974 0.608997 0.206829 1.0681 0.532315 1.23256 
178 1 0.905152 0.712419 0.201304 6.88738 0.818183 0.239635 
3 1 0.0987047 0.998463 0.092092 0.792902 4.6731 -2.47729 
83 1 0.0981422 0.791261 0.0985653 0.182923 -1.46879 -1.89418 
84 1 0.00938751 0.895827 0.0990655 -1.50443 -0.68369 -3.73738 
85 1 0.192895 0.797589 0.00101152 4.08416 -2.67743 -0.0756361 
88 1 0.196856 0.897336 0.0984561 2.75375 -2.31133 0.199543 
181 1 0.0123392 0.793137 0.201841 3.02511 1.03899 1.89601 
182 1 0.0994361 0.891926 0.200358 -0.96367 -1.0595 -2.0538 
185 1 0.202122 0.800233 0.194639 -1.52008 -2.35761 3.3031 
7 1 0.301279 0.99514 0.0965126 3.25813 4.80264 1.90477 
87 1 0.300355 0.798583 0.0982793 1.57686 -2.52022 -1.96422 
89 1 0.398603 0.784018 0.00659299 1.65248 1.60399 -0.566046 
92 1 0.398025 0.898774 0.101468 1.67443 1.95965 -3.21534 
186 1 0.299732 0.909347 0.19117 4.07797 -1.71061 -1.89103 
189 1 0.38741 0.805627 0.201366 4.30502 8.02324 4.21885 
90 1 0.497106 0.885476 0.00706665 2.4907 0.932539 -0.874997 
91 1 0.488862 0.795947 0.108348 -3.3912 -0.126153 -5.66866 
190 1 0.494468 0.898959 0.202653 -0.478849 0.650532 -0.998236 
11 1 0.5021 0.996374 0.104244 -1.17008 4.55575 -3.95018 
13 1 0.592417 0.993022 0.00449938 -3.69805 1.65318 1.88512 
15 1 0.692252 0.999622 0.090998 2.36143 0.74027 -1.32168 
113 1 0.600747 0.992302 0.193521 -6.89494 0.909387 -0.594208 
93 1 0.603419 0.798254 0.00276378 -2.57805 -0.0020579 3.33284 
94 1 0.705739 0.896958 0.000814618 2.18282 0.0193838 -2.00124 
95 1 0.703837 0.800301 0.101274 0.157207 -1.81692 3.55008 
96 1 0.596068 0.896058 0.0944842 -1.23578 -2.43478 -3.55679 
193 1 0.600175 0.801255 0.189894 3.29742 -0.544415 -2.41284 
194 1 0.69884 0.893647 0.205706 0.381222 -1.69926 -1.98257 
19 1 0.905631 0.988916 0.0902249 2.74426 3.49083 -2.05892 
117 1 0.806069 0.995852 0.20228 1.98128 -0.928444 0.747701 
99 1 0.902121 0.807296 0.0984918 -3.08066 0.185238 0.186191 
100 1 0.799425 0.905352 0.102355 -2.38211 0.17701 -1.63835 
197 1 0.798104 0.805322 0.194655 -2.08941 -2.96518 -0.893883 
198 1 0.90095 0.903438 0.192851 -4.21201 -0.270582 -1.75285 
103 1 0.0935689 0.00755533 0.293914 -0.406625 5.28442 -0.912608 
108 1 0.204225 0.0985418 0.289461 0.555704 1.46276 3.80826 
123 1 0.0976568 0.204736 0.297197 1.50656 2.59852 3.41985 
202 1 0.10312 0.0983935 0.394818 -2.36305 0.720775 2.28092 
221 1 0.0035156 0.196352 0.390716 3.51403 -5.51545 -1.71852 
225 1 0.196037 0.197597 0.39056 -4.1875 -4.25172 -0.52355 
203 1 0.104605 0.00790725 0.494042 0.0956508 3.62667 2.0016 
204 1 0.00545659 0.10221 0.493669 1.32486 1.30072 0.734342 
208 1 0.206923 0.104761 0.49841 2.22613 -1.33241 -1.00356 
223 1 0.0985792 0.195773 0.491879 6.07149 -1.59133 4.77143 
107 1 0.290901 0.00757681 0.296778 -4.36057 0.354763 0.982655 
112 1 0.398639 0.0936705 0.302904 -0.343594 -2.35093 0.595883 
127 1 0.299552 0.197067 0.309232 -0.137651 1.08865 -4.00977 
206 1 0.306147 0.102989 0.401222 -0.805405 -3.7898 2.16169 
229 1 0.400534 0.200288 0.392887 -1.71655 -1.87354 -0.941418 
207 1 0.300635 0.00130095 0.499557 1.86857 -0.38422 -0.956975 
231 1 0.496925 0.196198 0.499561 0.773611 1.91214 -2.27395 
111 1 0.506292 0.000513326 0.300836 -0.296049 -0.420996 1.24716 
116 1 0.603963 0.0997447 0.292592 0.120225 -0.381591 -3.00039 
131 1 0.50008 0.199671 0.300773 -0.0082374 -1.37313 0.353195 
135 1 0.701775 0.196447 0.298801 -3.78067 2.33738 -2.76601 
210 1 0.503922 0.105261 0.396963 -1.87195 2.27713 1.07415 
214 1 0.692461 0.100508 0.405169 -2.33726 -0.434215 -5.3323 
233 1 0.601137 0.192687 0.402584 0.344747 -2.65137 -0.394329 
104 1 0.996637 0.106345 0.288443 2.18773 3.59063 1.19156 
120 1 0.797441 0.0871956 0.302359 1.18016 -1.40887 0.248482 
139 1 0.893475 0.198552 0.302816 -6.52166 2.15702 -0.331868 
217 1 0.79544 0.00281621 0.403753 1.03511 3.1632 2.50897 
218 1 0.90118 0.0944227 0.395577 -2.64266 0.592494 -1.54952 
237 1 0.800467 0.197502 0.405952 -3.68639 -1.54105 -3.10512 
219 1 0.906876 0.00494015 0.494894 -1.16425 -0.940372 1.47831 
220 1 0.804291 0.0954349 0.497308 1.51093 0.492328 -2.75588 
128 1 0.202277 0.296893 0.294097 0.414483 1.64117 0.869987 
143 1 0.104518 0.397489 0.304004 -0.851869 1.15087 -2.45845 
222 1 0.0967733 0.30597 0.398352 -1.92803 -0.997148 -2.83708 
245 1 0.203428 0.399004 0.402221 -2.72314 -2.89185 -0.862172 
148 1 0.198297 0.497024 0.307209 -1.81426 2.1508 1.35933 
228 1 0.18702 0.295597 0.499688 -0.942523 1.20175 -1.89658 
243 1 0.0968068 0.403531 0.493711 1.41149 -0.153293 7.6613 
132 1 0.393048 0.293621 0.298428 -3.1454 1.73168 -0.770185 
147 1 0.302149 0.399366 0.304956 -0.186517 -1.58463 1.38985 
226 1 0.290001 0.29688 0.405293 -1.45959 -3.32939 0.554229 
249 1 0.405743 0.393535 0.400245 3.6954 4.00333 -3.37734 
151 1 0.490038 0.393162 0.304113 0.932647 3.41898 -2.26539 
230 1 0.498725 0.290296 0.39757 0.85738 -1.56727 -1.71896 
246 1 0.299299 0.4977 0.408668 1.32626 -2.79339 2.94213 
232 1 0.396041 0.300523 0.498697 0.548195 -1.53898 0.676677 
252 1 0.404373 0.496597 0.49492 -3.74007 0.0353382 -2.06813 
136 1 0.598952 0.290669 0.299511 -2.89447 -1.99112 3.37897 
155 1 0.691512 0.406582 0.307829 -1.84769 -1.63119 -1.15932 
234 1 0.700361 0.295996 0.398713 1.22892 -0.824481 -2.00342 
253 1 0.593941 0.389544 0.400136 -0.747522 1.25357 -3.66926 
156 1 0.59697 0.493208 0.288657 1.33356 0.394943 -0.426 
250 1 0.505059 0.496079 0.394975 1.14967 0.0661858 0.703109 
254 1 0.698192 0.498711 0.396991 -0.61088 -1.57732 3.6099 
256 1 0.601389 0.498246 0.496674 6.049 -0.921494 0.768893 
124 1 0.998019 0.302397 0.301805 0.370126 0.595318 -0.0403889 
241 1 0.994943 0.40565 0.400047 1.36823 2.92571 -1.53701 
140 1 0.797669 0.300839 0.30522 -2.06024 1.91679 -0.817526 
159 1 0.904413 0.404229 0.303567 2.22638 -3.14887 -3.52151 
238 1 0.895657 0.29297 0.402631 1.93282 0.753948 -0.582472 
257 1 0.800064 0.402269 0.396429 -4.35295 1.62062 3.3165 
224 1 0.998849 0.299839 0.49497 -0.867854 -1.04792 -0.725723 
240 1 0.802365 0.291628 0.49794 7.26415 1.60174 -2.63071 
144 1 0.0019649 0.507294 0.311301 0.0831974 0.508082 0.90301 
163 1 0.103262 0.604746 0.311139 0.54684 2.31273 1.8553 
168 1 0.201687 0.702171 0.314738 2.87327 -0.200449 1.36431 
242 1 0.100254 0.503711 0.40652 -1.12465 1.30437 3.69942 
261 1 0.00186944 0.605013 0.406853 -0.399507 4.61888 2.3304 
262 1 0.0932675 0.706404 0.408686 -0.348023 3.80951 0.803508 
265 1 0.201814 0.607487 0.410021 -0.244121 2.99143 1.56591 
268 1 0.208652 0.699255 0.497805 1.30539 2.97869 -5.41003 
152 1 0.399419 0.505219 0.307771 -0.479331 0.719201 -1.14531 
167 1 0.298807 0.597342 0.311748 -2.26164 1.75379 -0.142355 
172 1 0.40062 0.704425 0.300618 1.28283 -2.61983 -0.479473 
266 1 0.308854 0.697947 0.412641 2.88103 -3.20239 0.481438 
269 1 0.403199 0.60074 0.403228 0.06662 -0.419579 3.0419 
171 1 0.500778 0.600441 0.297169 1.65931 5.64584 -0.459151 
175 1 0.702921 0.60311 0.298991 3.66701 1.52792 1.43887 
176 1 0.595238 0.705444 0.293091 -3.12819 5.57453 1.71417 
270 1 0.501761 0.692616 0.397163 1.15946 1.00255 1.69318 
273 1 0.601525 0.598896 0.393668 5.26684 3.68881 4.89459 
274 1 0.702516 0.706007 0.399302 -4.04552 1.65502 -0.0995753 
271 1 0.50453 0.599577 0.49353 2.78762 -0.945753 -3.66789 
275 1 0.706416 0.605759 0.495535 3.43921 -1.16437 0.603942 
276 1 0.598818 0.695941 0.499239 2.37114 2.64031 0.0813187 
164 1 0.999696 0.712528 0.300738 1.94292 0.593745 -0.0681892 
160 1 0.800089 0.506229 0.300107 2.81111 -0.928022 0.551863 
179 1 0.906027 0.602407 0.305169 0.1558 -0.682948 -0.781832 
180 1 0.808506 0.712751 0.304999 0.881292 3.13105 1.78069 
258 1 0.90127 0.508505 0.400553 -2.05472 3.04994 -0.820626 
277 1 0.80409 0.608455 0.395378 -6.4598 -1.09127 0.577734 
278 1 0.904495 0.703461 0.399661 -0.118949 4.73214 0.540756 
260 1 0.797399 0.501739 0.495976 0.748443 1.14247 -1.56094 
279 1 0.900035 0.595424 0.499168 -2.65621 -1.07903 -2.34503 
280 1 0.813532 0.706506 0.497884 5.46716 0.252204 -1.83058 
205 1 0.196948 0.997033 0.399257 0.370781 0.325897 0.368433 
183 1 0.102613 0.797549 0.301884 -5.79927 -0.282182 4.94628 
184 1 0.000752636 0.897158 0.3015 3.98443 -0.606685 0.725756 
188 1 0.19503 0.910145 0.293312 -0.490223 2.25816 -0.716156 
281 1 0.00268056 0.803648 0.397859 3.35666 -2.60482 0.466721 
282 1 0.0968783 0.898131 0.392771 -2.30661 -0.288202 -1.69469 
285 1 0.198714 0.810764 0.399317 0.14752 1.39141 -1.69168 
284 1 0.00879904 0.905897 0.499174 -0.583949 1.77339 -2.76981 
288 1 0.187138 0.906289 0.492341 5.00803 3.56577 1.21487 
209 1 0.409098 0.994621 0.399231 -3.55506 -2.18392 -0.551636 
187 1 0.299439 0.808065 0.303878 1.59698 -2.52045 0.0114552 
192 1 0.386783 0.90489 0.303745 1.47544 -0.156932 1.36603 
286 1 0.297414 0.912933 0.400985 0.368189 -0.548824 -0.181667 
289 1 0.393343 0.804491 0.406724 1.83429 -0.120017 -2.03033 
191 1 0.496536 0.798638 0.304632 3.41214 -0.733881 -1.27568 
115 1 0.698358 0.997695 0.294663 -2.76043 1.69813 0.459717 
213 1 0.607552 0.998771 0.403615 -3.98191 -1.56527 -2.84523 
195 1 0.699759 0.802139 0.304669 4.74037 0.118231 -0.433158 
196 1 0.59267 0.89807 0.288715 -0.341584 0.435309 -2.23317 
290 1 0.503094 0.896802 0.395712 3.59253 1.61214 -0.187051 
293 1 0.597316 0.795852 0.399573 0.431326 1.58415 1.1421 
294 1 0.692488 0.902733 0.399353 1.25862 -2.51974 1.07911 
291 1 0.50201 0.795925 0.494162 0.24612 -1.02974 -0.607971 
295 1 0.694109 0.806728 0.495987 -0.259944 0.580179 -2.93004 
201 1 0.997891 0.998545 0.400817 -1.63225 1.33759 -2.28502 
119 1 0.909087 0.996334 0.296806 5.90047 0.513677 4.61203 
199 1 0.904082 0.81534 0.301785 -0.0553667 3.8364 -0.50027 
200 1 0.804531 0.90175 0.306848 -2.21083 0.795688 -4.7322 
297 1 0.803944 0.802549 0.397938 -1.49928 -1.16619 -0.162347 
298 1 0.898418 0.906304 0.408907 -3.10649 -1.86236 -3.13505 
299 1 0.903709 0.813919 0.496562 1.10957 -0.876179 2.22664 
300 1 0.797038 0.89936 0.494797 2.52081 0.249286 -5.86082 
302 1 0.105933 0.092756 0.603912 -2.04198 0.808655 -1.48654 
305 1 0.202315 0.00562925 0.602589 2.05064 -1.99024 0.420416 
308 1 0.206256 0.0973647 0.705755 -4.23498 2.02765 -4.3492 
321 1 0.00384598 0.193443 0.601002 -1.34394 2.27092 0.859664 
323 1 0.100457 0.198792 0.699777 1.35173 2.14813 4.43177 
325 1 0.195965 0.193542 0.599322 0.057663 -1.97202 -2.74221 
212 1 0.400345 0.0996491 0.505919 1.52497 1.48476 2.48365 
227 1 0.292533 0.20285 0.505463 2.31009 -1.75215 4.03561 
306 1 0.301339 0.100747 0.598389 4.93548 -2.69702 2.59985 
307 1 0.299673 0.00817006 0.70586 -0.969803 2.10492 -2.29593 
312 1 0.404145 0.095376 0.701872 -0.21315 -0.413239 -0.794302 
327 1 0.295596 0.192496 0.706431 -2.36109 -3.59924 -1.24898 
329 1 0.40157 0.204581 0.604954 1.30225 4.38469 2.87144 
310 1 0.498615 0.101164 0.601495 7.90605 -2.26331 3.89112 
331 1 0.498665 0.19748 0.707272 0.857813 -1.9299 -3.693 
211 1 0.500465 0.00418147 0.505216 0.520676 0.729906 -3.19796 
216 1 0.59553 0.101058 0.507285 4.23175 1.50551 0.929818 
235 1 0.701404 0.190651 0.501937 1.96788 0.378269 -3.21356 
313 1 0.597204 0.00283872 0.600333 0.680865 3.05813 1.44255 
314 1 0.694595 0.0988402 0.595117 2.5334 0.963064 -0.47608 
315 1 0.703246 0.00229237 0.703396 3.27815 -1.52599 1.96543 
316 1 0.59902 0.102862 0.710274 -0.97142 0.183837 -2.83051 
333 1 0.601594 0.199483 0.604225 -0.105276 1.14491 -0.510845 
335 1 0.697163 0.201463 0.697163 -0.23068 -5.67695 1.68276 
304 1 0.998089 0.0975728 0.702794 0.28314 -2.57894 -1.84546 
239 1 0.898123 0.186144 0.508352 -5.32485 2.3893 1.27082 
317 1 0.803146 0.0110993 0.59877 1.04163 2.36284 -0.702952 
318 1 0.904364 0.0976574 0.612672 1.10342 2.82428 2.8163 
320 1 0.795619 0.101452 0.701315 0.776252 -1.32329 -4.83963 
337 1 0.798058 0.195369 0.598831 2.14759 2.16732 -2.28742 
339 1 0.903433 0.202766 0.697596 -0.507737 1.04977 -1.93044 
322 1 0.0927532 0.299418 0.598483 -0.976888 0.285962 -0.55364 
324 1 0.00105148 0.297756 0.702656 0.124423 0.459134 3.19424 
328 1 0.201676 0.29671 0.688238 3.47122 2.84304 0.803476 
341 1 0.00328204 0.396062 0.601731 -2.24888 -0.52965 2.09051 
343 1 0.105943 0.395379 0.69464 -2.39835 -0.117911 4.15578 
345 1 0.19873 0.399677 0.593224 2.23357 0.267647 2.36477 
348 1 0.19854 0.491938 0.691508 -4.18571 0.400018 -3.95004 
247 1 0.291577 0.395561 0.505553 0.192157 -2.87005 2.84687 
326 1 0.29573 0.29057 0.597042 -1.07762 -2.23781 5.71073 
332 1 0.395546 0.290872 0.7116 -0.0963931 0.365217 1.27946 
347 1 0.293914 0.394192 0.693691 -2.35321 -4.53452 2.00984 
349 1 0.402226 0.393182 0.603684 -2.44884 4.94933 1.6352 
346 1 0.3022 0.499696 0.599573 -0.508903 -0.408936 -0.201178 
352 1 0.400755 0.500001 0.702891 -1.04184 0.456076 1.5989 
350 1 0.496302 0.494761 0.607606 -2.73935 -1.41047 2.97491 
236 1 0.597744 0.297706 0.50245 2.16212 -1.41974 -1.32585 
251 1 0.500821 0.39586 0.50095 -5.48964 -3.63074 2.03504 
255 1 0.703085 0.394611 0.506526 2.94139 -2.28796 0.536514 
330 1 0.503922 0.30071 0.601491 -2.04355 2.36003 -1.30822 
334 1 0.710497 0.294883 0.601375 1.06566 3.72749 -2.60762 
336 1 0.602054 0.304806 0.694527 -0.298006 -2.44221 -2.5911 
351 1 0.505936 0.407406 0.705918 -0.254385 2.71524 1.87028 
353 1 0.601449 0.394777 0.59958 -2.79399 -1.54059 0.288177 
355 1 0.707152 0.403302 0.694433 0.0948602 -3.34823 6.6408 
354 1 0.705346 0.495918 0.594686 -3.26332 0.210299 -0.602174 
259 1 0.894094 0.397474 0.503463 -2.75056 2.18021 4.76481 
338 1 0.901923 0.293717 0.59046 0.0851935 2.92041 -3.66339 
340 1 0.798527 0.298742 0.695426 -2.09833 -3.0383 3.97811 
357 1 0.803475 0.399399 0.603196 1.48856 1.63418 -2.18848 
359 1 0.897583 0.395365 0.695194 -2.73744 -1.52032 2.12081 
358 1 0.898645 0.499511 0.596309 3.89602 3.39183 3.02066 
360 1 0.801128 0.499287 0.70155 -0.218504 1.56426 0.446548 
244 1 0.00299688 0.500473 0.500804 -0.260748 -0.207212 -3.7069 
248 1 0.199048 0.507217 0.502693 -0.924804 -1.86636 1.26104 
263 1 0.0980185 0.596387 0.504278 3.70684 0.647427 0.304929 
342 1 0.10298 0.507037 0.600054 1.17332 0.938923 0.715624 
344 1 0.00240901 0.502835 0.691326 -2.56296 0.417469 6.61384 
362 1 0.100042 0.701422 0.595904 -1.12365 -2.56931 -0.0944565 
363 1 0.0971145 0.602305 0.690857 4.61102 -1.36217 -0.0730096 
364 1 0.00174378 0.699868 0.695741 2.64651 0.732037 4.25776 
365 1 0.202271 0.603327 0.600752 -1.16854 -7.18191 -3.37626 
368 1 0.19735 0.710972 0.698732 4.61443 -1.262 2.46096 
267 1 0.300368 0.596175 0.509732 -2.23417 -2.54361 3.69385 
272 1 0.4057 0.703476 0.501859 1.85019 -2.13518 -1.88012 
366 1 0.297725 0.704249 0.5997 -0.818086 3.23534 -4.37236 
367 1 0.298166 0.599356 0.694519 1.45481 0.681605 2.17568 
369 1 0.400457 0.599142 0.600787 -3.17406 -0.620292 6.1885 
372 1 0.407 0.699486 0.698675 -1.03723 -2.79496 -0.886042 
356 1 0.605844 0.501468 0.696839 -0.290165 2.39912 4.47221 
370 1 0.501245 0.699221 0.599497 0.83142 -1.15697 2.42107 
371 1 0.501901 0.60285 0.696067 -2.55916 0.55043 -0.705624 
373 1 0.610536 0.594688 0.593866 -2.18157 -2.65539 -1.16374 
374 1 0.701482 0.708056 0.586893 1.30981 -3.3422 -1.31832 
375 1 0.704619 0.599616 0.691062 9.38613 -4.75686 3.22476 
376 1 0.606745 0.691434 0.693923 -2.46635 -1.11243 0.0420372 
264 1 0.99246 0.702299 0.501939 5.01422 0.23443 -1.49899 
361 1 0.99492 0.600027 0.589551 5.13445 -3.77881 1.02313 
377 1 0.803296 0.5986 0.590768 0.365889 0.86618 0.179069 
378 1 0.910625 0.698668 0.596493 4.56192 -2.29286 -5.03383 
379 1 0.903897 0.598038 0.694299 -4.17679 -4.67165 0.712452 
380 1 0.809818 0.698027 0.697265 0.824934 3.33134 1.39529 
303 1 0.0961442 0.99895 0.698538 5.44111 0.220837 -0.966723 
283 1 0.102083 0.804615 0.502129 2.03905 2.49282 -2.12461 
381 1 0.00511664 0.800764 0.599071 -0.840523 1.04532 -1.82635 
382 1 0.0985174 0.910373 0.601086 -1.04618 -2.96328 -3.89212 
383 1 0.0996158 0.810876 0.694447 2.55717 -1.45861 -1.31718 
385 1 0.204446 0.804054 0.598985 0.509797 -3.4199 2.60247 
388 1 0.211195 0.90861 0.697355 -4.75613 0.403645 2.38131 
309 1 0.395781 0.99936 0.600377 -0.349282 -5.13358 -1.45424 
287 1 0.299106 0.803466 0.501295 -4.55932 -2.68455 -2.75874 
292 1 0.403657 0.900743 0.503432 -1.4848 1.59377 3.80914 
386 1 0.302554 0.906856 0.601331 -0.168068 0.921888 -0.342168 
387 1 0.314052 0.80377 0.706336 0.545257 -3.60891 -3.56084 
389 1 0.400084 0.804712 0.600773 2.20599 -1.08381 -1.89334 
392 1 0.399482 0.907071 0.70758 0.782932 -0.246662 0.137738 
390 1 0.498997 0.903233 0.607187 -0.974576 -0.312052 3.23241 
391 1 0.499474 0.805722 0.706735 0.802987 2.27807 1.88748 
215 1 0.704535 0.994306 0.507261 1.22753 -1.09351 0.146173 
311 1 0.504042 0.999665 0.70289 -0.511475 0.951078 1.83696 
296 1 0.599791 0.899704 0.506021 -0.37447 2.26274 -0.8675 
393 1 0.591118 0.79048 0.597245 1.57265 -1.12209 5.0353 
394 1 0.706383 0.893492 0.596333 4.88336 0.957483 -3.72082 
395 1 0.697916 0.78913 0.694118 1.0126 0.112581 -0.233025 
396 1 0.606296 0.894388 0.70205 3.88357 1.1641 2.75743 
301 1 0.99748 0.999955 0.599411 0.0388575 0.518853 2.68654 
319 1 0.896618 0.994511 0.704048 0.860276 -1.95288 -4.02663 
384 1 0.992514 0.902014 0.69503 2.35583 -2.05947 1.47622 
397 1 0.809144 0.79552 0.601754 -0.927633 -0.143601 2.58339 
398 1 0.897188 0.906314 0.60066 0.152573 1.29097 -2.43479 
399 1 0.910153 0.790454 0.69931 -0.317885 -1.73953 -3.79483 
400 1 0.793751 0.88892 0.694023 5.40829 0.657879 2.49785 
21 1 0.00118765 0.205014 0.99863 -2.65862 0.519833 -0.184523 
402 1 0.0951333 0.102397 0.806732 3.87134 0.733828 -4.83938 
404 1 0.00375011 0.109005 0.906116 0.142264 0.0535713 2.36558 
408 1 0.199283 0.0953078 0.904511 -0.381243 -1.88763 -1.91338 
423 1 0.096468 0.205186 0.906266 -4.25179 1.9912 -0.361398 
425 1 0.196991 0.209002 0.804992 1.66046 2.9344 0.218732 
29 1 0.399707 0.191929 0.998057 -3.8105 3.11363 1.45154 
406 1 0.295516 0.0998814 0.813259 1.69226 -3.16485 -2.82798 
412 1 0.400168 0.0986279 0.904524 1.27942 -3.03443 0.890204 
427 1 0.298505 0.204676 0.899891 -1.26638 -4.04904 0.110351 
429 1 0.389036 0.196914 0.798339 1.30978 7.79904 2.76964 
410 1 0.497975 0.0966259 0.807516 1.83259 -1.52249 -1.82845 
10 1 0.50638 0.105075 0.998255 1.49706 -5.86006 1.6792 
411 1 0.509962 0.000837655 0.90534 -1.06212 -0.514257 -2.0446 
413 1 0.596258 0.00164361 0.801058 -2.75196 0.306962 0.340746 
414 1 0.700787 0.104773 0.79988 -2.05211 -0.44155 1.7673 
415 1 0.687062 0.00841931 0.903618 -0.800223 0.749464 -1.08908 
416 1 0.598104 0.10904 0.902996 -0.666298 -2.73261 -0.661657 
431 1 0.506046 0.202188 0.894867 -1.22272 -3.42842 0.305892 
433 1 0.595405 0.202142 0.803707 -0.950764 -0.490427 -0.811427 
435 1 0.69367 0.209083 0.903843 2.13845 -0.404243 -0.519757 
17 1 0.800086 0.000295308 0.995012 -3.08026 1.20078 -0.615787 
401 1 0.994097 0.0027078 0.798857 -1.91686 -2.08633 -1.07956 
421 1 0.991549 0.198472 0.801369 -3.91446 -0.513732 0.0813477 
418 1 0.893379 0.0986017 0.798174 -0.30626 -3.14974 -3.25219 
419 1 0.898414 0.00341848 0.893757 -0.635666 0.178209 -4.14001 
420 1 0.788345 0.108288 0.902413 -2.02667 -2.28176 -4.39463 
437 1 0.794424 0.204862 0.793526 -0.642287 -2.72701 -1.35603 
439 1 0.892941 0.19918 0.904158 -0.994708 2.86827 1.50387 
22 1 0.0925441 0.304055 0.999419 -4.52522 -1.57792 -3.594 
422 1 0.0993899 0.301188 0.793867 -1.3161 -4.59854 0.41671 
428 1 0.195549 0.308733 0.908821 0.154424 -0.866918 2.18406 
443 1 0.0991925 0.400141 0.900233 -1.10831 -1.70017 -3.89474 
445 1 0.200299 0.392912 0.796927 -3.66616 -0.899047 1.21531 
442 1 0.102545 0.49388 0.789861 -6.63012 -1.54837 3.42478 
448 1 0.191078 0.495096 0.896716 0.847199 -1.1425 -0.929184 
49 1 0.397464 0.410876 0.999108 1.78588 -2.88163 -0.135277 
30 1 0.492131 0.306347 0.980831 0.0766841 -1.03651 -4.15109 
46 1 0.281449 0.499595 0.992936 2.69235 -0.736971 2.86711 
426 1 0.298635 0.300924 0.799092 1.82835 -4.67526 -2.19777 
432 1 0.400014 0.302901 0.904123 -0.458906 -2.3495 -2.51379 
447 1 0.301403 0.407012 0.905996 5.27385 2.78242 1.75372 
449 1 0.399304 0.39937 0.800421 -2.36037 -0.024138 0.175718 
451 1 0.495026 0.412472 0.895428 -0.0266056 1.42891 -4.22087 
446 1 0.290234 0.491697 0.787611 -1.0519 6.87864 3.58234 
34 1 0.702475 0.315479 0.995112 3.93474 -1.25493 2.91159 
430 1 0.502357 0.302284 0.806789 0.253764 -2.34565 0.0593571 
434 1 0.695921 0.304569 0.800487 -4.30272 2.99257 1.5901 
436 1 0.593248 0.314159 0.899942 -0.396604 -0.00585733 0.0398126 
453 1 0.605964 0.403136 0.79676 -2.81221 -0.293302 -0.170171 
455 1 0.706439 0.406638 0.898312 -3.38599 0.0144046 -2.81399 
454 1 0.705829 0.496334 0.797031 -1.8386 -2.66776 -1.5796 
57 1 0.799101 0.410641 0.996962 4.66814 -2.04314 -1.12553 
424 1 0.992671 0.297828 0.898246 -1.78513 -1.65265 0.0362641 
441 1 0.996859 0.400053 0.798119 -2.29863 -0.393398 -0.917033 
438 1 0.892246 0.295546 0.793773 1.74159 -1.24633 -1.34765 
440 1 0.802409 0.302006 0.901444 -0.943412 1.92657 -3.72219 
457 1 0.800415 0.401308 0.799265 -3.05931 -2.56777 -7.06422 
459 1 0.899838 0.40051 0.897049 -1.0848 1.57077 -0.043575 
444 1 0.997017 0.499139 0.903296 -0.120669 -1.18481 -0.0643181 
458 1 0.90293 0.494464 0.797392 3.03886 1.80918 0.477618 
62 1 0.102968 0.702737 0.993532 -3.4913 -1.91626 -0.67566 
65 1 0.191964 0.601543 0.993886 1.93469 -2.8093 -1.06844 
461 1 0.00371401 0.597234 0.793024 3.92336 2.58651 2.79637 
462 1 0.102362 0.697261 0.793152 -2.18974 -2.18288 3.75868 
463 1 0.0990133 0.592636 0.894259 1.49766 -1.32425 2.29209 
464 1 0.00610913 0.698507 0.891518 0.352567 0.353279 2.59267 
465 1 0.194118 0.592046 0.792701 2.0378 -1.06947 -1.83613 
468 1 0.206579 0.703338 0.90009 -0.774523 2.0414 5.60158 
66 1 0.307457 0.693169 0.993693 -2.99159 -3.67529 -2.34809 
452 1 0.401478 0.51156 0.898364 1.6493 -1.45933 3.13503 
466 1 0.301869 0.691972 0.799436 -0.44041 2.24627 -1.05391 
467 1 0.291896 0.598179 0.892791 1.85883 -1.20942 -0.235465 
469 1 0.392339 0.599156 0.792444 -2.35775 -1.10312 5.30233 
472 1 0.40744 0.694364 0.895503 3.06403 -0.0779861 3.19494 
471 1 0.496869 0.604243 0.900763 1.18763 1.42649 0.236426 
450 1 0.503278 0.503807 0.799162 3.93732 1.69542 -0.329953 
456 1 0.597432 0.505695 0.899855 -4.02531 -2.87605 -1.50804 
470 1 0.508151 0.69774 0.789159 0.520488 -1.41507 3.43086 
473 1 0.596733 0.597348 0.803428 3.29208 -1.5536 -0.191329 
474 1 0.699217 0.696652 0.80197 2.38799 4.94291 0.977982 
475 1 0.697093 0.599507 0.899284 -3.23161 -2.41108 0.599341 
476 1 0.60453 0.703127 0.898449 0.883319 -3.15019 -0.898769 
460 1 0.802119 0.503 0.90329 -0.611482 0.38278 -3.76481 
477 1 0.796232 0.597888 0.795936 -2.7881 0.731287 -1.09941 
478 1 0.90569 0.689451 0.801671 -2.23189 -1.47837 2.87914 
479 1 0.90264 0.596959 0.905075 2.04615 2.7113 -0.581806 
480 1 0.800307 0.692524 0.896744 -1.8617 0.473461 3.93258 
82 1 0.0978919 0.897709 0.998874 -3.53678 1.60634 0.0367713 
403 1 0.0998008 0.992738 0.901565 -2.52428 2.96678 -0.7214 
405 1 0.206449 0.993617 0.802098 2.98639 -7.42519 3.09219 
481 1 0.00434227 0.802962 0.80366 1.09087 -1.89814 -1.35371 
482 1 0.0996794 0.9 0.792819 3.81312 2.7472 4.40672 
483 1 0.105943 0.804349 0.896458 -0.48601 5.47937 -1.8609 
485 1 0.201895 0.804185 0.800882 -0.986948 -0.494203 2.80313 
488 1 0.207622 0.899084 0.904217 2.70293 -0.841159 0.201484 
9 1 0.402738 0.999565 0.994808 1.15245 4.53812 -2.12307 
86 1 0.302406 0.895899 0.997546 -1.58522 3.20908 -1.85718 
407 1 0.305654 0.997935 0.894133 -0.866642 0.846132 -0.762747 
409 1 0.402789 0.991647 0.802317 0.702184 0.888633 0.242947 
486 1 0.307877 0.893831 0.81572 -3.13951 3.02413 0.686839 
487 1 0.304308 0.793338 0.898509 -1.84872 2.62491 -0.658764 
489 1 0.402645 0.792232 0.79904 -1.78466 0.699002 4.34836 
492 1 0.404001 0.885326 0.906425 0.532198 -0.650937 3.17609 
490 1 0.502732 0.901397 0.810423 -3.18423 0.108966 -4.15039 
491 1 0.505988 0.798648 0.908499 0.615505 -0.158447 -0.116581 
493 1 0.598908 0.796505 0.801985 -0.454262 1.56509 -2.81204 
494 1 0.701252 0.89975 0.801037 -2.378 -1.06732 0.123395 
495 1 0.702164 0.797828 0.901585 -2.57707 4.22298 -2.4295 
496 1 0.605381 0.893696 0.900436 -2.39083 -1.7153 0.282313 
1 1 0.997654 0.996425 0.995227 1.85134 -2.55802 -0.511849 
81 1 0.999052 0.799752 0.997286 -0.293665 -3.25198 3.336 
97 1 0.801829 0.792768 0.999584 3.75459 -1.50583 2.98554 
98 1 0.903828 0.89429 1.00001 0.108215 1.5569 5.38711 
417 1 0.798191 0.999763 0.803357 -0.828755 2.11425 0.687247 
484 1 0.995632 0.899519 0.89411 1.79499 0.211285 -3.82827 