ITEM: TIMESTEP
11000
ITEM: NUMBER OF ATOMS
500
ITEM: BOX BOUNDS pp pp pp
0 18.144
0 18.144
0 18.144
ITEM: ATOMS id type xs ys zs vx vy vz 
2 1 0.100731 0.0975424 0.00134725 0.22053 0.702365 -2.8819 
8 1 0.197911 0.102423 0.0985419 0.375644 -0.566577 -2.10043 
21 1 0.00395988 0.199974 0.012278 -2.03354 2.67052 4.60934 
23 1 0.10672 0.192264 0.105315 2.69311 0.651432 -0.487368 
25 1 0.199397 0.197647 0.00861289 -3.09483 -3.69551 0.889623 
52 1 0.0909558 0.0952737 0.199138 -5.17111 -0.451549 -0.187377 
55 1 0.193657 0.00379001 0.199257 -4.2967 -0.0740354 -0.954868 
6 1 0.299879 0.101679 0.00248639 -5.95672 0.830452 1.94406 
7 1 0.298174 0.0084429 0.101363 -0.368591 -0.306237 -0.483676 
12 1 0.404112 0.0999907 0.104313 -4.92922 3.47135 -2.07914 
27 1 0.293631 0.192986 0.102591 -0.440967 1.43678 -1.12046 
31 1 0.495821 0.199352 0.108732 2.18788 -1.7331 3.49471 
79 1 0.395343 0.197713 0.199997 2.78144 -5.03349 -1.04371 
10 1 0.502722 0.100053 0.000509606 1.31503 3.94501 -1.1815 
16 1 0.596819 0.0977258 0.0937195 2.85018 -4.389 0.477617 
33 1 0.59633 0.198681 0.00213127 -1.25774 -4.64075 3.00996 
35 1 0.704445 0.205091 0.0964328 -3.57011 -0.261824 -3.11131 
64 1 0.709692 0.10052 0.191975 -0.842843 3.16789 -1.4283 
83 1 0.605789 0.18616 0.197185 -3.24428 -2.36894 4.40843 
4 1 0.996468 0.0954522 0.10374 -1.59297 0.861369 -3.78035 
18 1 0.904736 0.0920537 0.0041802 3.30993 -3.6471 2.86723 
19 1 0.895536 0.00470861 0.101596 1.43308 -0.385931 -2.36246 
20 1 0.800082 0.0976782 0.0870546 0.549378 2.51069 -2.22121 
39 1 0.899468 0.191783 0.0959344 -2.48594 -0.847659 -0.402371 
87 1 0.805355 0.19974 0.189219 -0.292691 1.81345 1.27755 
22 1 0.0922643 0.301605 0.00244131 -3.6221 2.56319 -0.0160915 
28 1 0.200428 0.307354 0.108052 -0.467157 -2.03548 2.55291 
41 1 0.00943617 0.39973 0.00796266 -3.89068 -2.77019 2.52487 
42 1 0.0955899 0.396097 0.105538 2.77804 0.0924645 -3.56449 
43 1 0.202728 0.400466 0.00830515 2.02631 4.72433 2.69525 
72 1 0.106565 0.295048 0.197729 3.08786 2.07924 2.95284 
93 1 0.201542 0.397966 0.197903 3.55637 0.133672 3.64227 
256 1 0.401238 0.497911 0.0981792 0.627429 -2.41235 2.85642 
44 1 0.305931 0.404246 0.0996795 -2.54173 2.80273 -2.90749 
46 1 0.49786 0.402806 0.0969536 3.44751 3.74754 1.68255 
32 1 0.41508 0.302304 0.0947947 0.31365 -1.10949 -0.583001 
26 1 0.302014 0.299619 0.00886017 0.955496 -3.60887 2.16711 
303 1 0.304942 0.496796 0.197186 1.04343 -3.71112 -1.33298 
258 1 0.600677 0.499014 0.103449 -5.36841 1.99758 4.00833 
257 1 0.703842 0.496972 0.00775576 -1.39946 -3.85647 -0.311517 
48 1 0.703276 0.397116 0.0935235 2.6485 3.25571 0.92916 
36 1 0.600386 0.291391 0.101991 -1.10964 8.12755 2.88311 
97 1 0.601985 0.394184 0.187532 -1.81046 -1.46898 0.943658 
50 1 0.896573 0.399998 0.105825 1.45634 -4.23003 3.3018 
259 1 0.900932 0.495112 0.000452405 -2.64259 -0.745866 -1.3402 
40 1 0.801735 0.297944 0.096892 1.23896 2.59442 0.519708 
24 1 0.993816 0.30222 0.0998156 -0.284139 -2.74097 -3.08563 
53 1 0.0958175 0.000435529 0.303087 -0.784061 -3.17204 -1.01971 
58 1 0.199095 0.10152 0.304407 -3.22458 0.0236428 -2.28372 
73 1 0.0938979 0.202058 0.298773 -2.10159 2.68399 -6.31359 
75 1 0.19616 0.192018 0.206456 -0.85518 -0.474092 1.83612 
56 1 0.304775 0.0989754 0.206 -1.28906 3.56189 0.272669 
59 1 0.404096 0.00171051 0.201183 -0.227031 0.248283 2.14473 
62 1 0.38667 0.0982009 0.302028 -0.13 0.553228 -1.14017 
77 1 0.299695 0.20493 0.301545 1.70673 -2.83366 3.04478 
60 1 0.497847 0.103333 0.202499 -2.91344 -3.50414 0.608587 
61 1 0.494628 0.0161041 0.305552 0.965448 1.1805 3.83794 
81 1 0.493567 0.19438 0.296414 1.00479 -5.29908 -1.14338 
106 1 0.291917 0.0990676 0.399665 -4.93961 0.836717 0.666631 
63 1 0.591408 0.00592956 0.200119 1.6858 0.957704 -1.47617 
66 1 0.610362 0.107594 0.301735 -0.557316 -1.16118 -0.000536069 
85 1 0.715964 0.200209 0.286922 3.8975 -2.902 -2.23037 
114 1 0.699753 0.108332 0.397096 -1.31635 1.58452 1.06555 
133 1 0.59991 0.199943 0.395356 3.50285 -0.353566 -0.0574413 
54 1 0.997675 0.0990099 0.306275 0.257628 2.01974 1.79512 
71 1 0.993386 0.199253 0.208136 6.43108 2.14157 -0.105648 
68 1 0.893735 0.105568 0.201054 0.930414 0.630378 3.39441 
69 1 0.893641 0.00379172 0.310921 2.52338 2.51472 -1.01378 
70 1 0.799847 0.0906279 0.299493 -0.206153 1.00567 1.71125 
89 1 0.89322 0.196648 0.307203 1.94744 -0.77843 0.390503 
78 1 0.205641 0.29982 0.307265 -0.207341 -1.342 0.578518 
91 1 0.00473676 0.399937 0.201116 -0.844068 -2.67296 1.57213 
92 1 0.103873 0.394235 0.295487 -0.178504 -0.0354814 1.74404 
122 1 0.0973278 0.300426 0.391294 -0.521096 -3.5266 -0.0319578 
143 1 0.194583 0.409677 0.391372 -0.392244 -3.20901 3.10984 
305 1 0.496825 0.499421 0.206765 -0.676952 -0.594516 -4.61066 
306 1 0.403807 0.498466 0.301452 3.60112 0.496872 -3.81733 
95 1 0.401298 0.401694 0.203333 0.696797 -2.76712 0.121568 
76 1 0.302224 0.299347 0.206097 0.465326 0.783315 -1.80546 
82 1 0.403132 0.295895 0.301197 2.27711 -2.96965 -3.31525 
94 1 0.293773 0.409502 0.303056 -1.67408 -0.163683 -1.26179 
145 1 0.404311 0.401737 0.396797 -0.522908 1.3022 -4.59626 
98 1 0.689203 0.409277 0.285445 2.63317 -1.91369 -2.31513 
96 1 0.510405 0.38864 0.292037 1.41092 -3.93532 1.10701 
86 1 0.608304 0.280581 0.288058 0.837979 -0.257061 0.743212 
84 1 0.704578 0.306189 0.201991 2.91627 -0.840682 4.06613 
80 1 0.506235 0.297113 0.203013 -2.29244 1.62461 -2.14546 
147 1 0.609138 0.394767 0.393269 -2.09319 -0.726526 0.478587 
130 1 0.508598 0.301541 0.393416 -1.47949 3.06245 -1.00685 
100 1 0.903818 0.407064 0.289908 3.08782 0.149656 1.14855 
99 1 0.803038 0.393273 0.205846 3.81251 1.3696 -2.53458 
90 1 0.803787 0.299184 0.30538 -3.80917 3.03545 2.1415 
88 1 0.901756 0.291415 0.20096 1.78537 1.39869 1.74789 
74 1 0.995701 0.296682 0.306704 -0.306479 -0.65173 0.96698 
149 1 0.795462 0.406949 0.396897 3.31606 -2.01197 2.17041 
141 1 0.999771 0.408083 0.389131 1.05317 -0.618314 2.63674 
102 1 0.0848014 0.0897609 0.400611 -0.346606 1.82966 4.38264 
105 1 0.188761 0.00349975 0.404908 -2.06426 -0.590693 -5.71561 
108 1 0.19618 0.0972875 0.497289 0.998578 -2.97341 1.40776 
123 1 0.0909864 0.194605 0.496236 2.70043 4.07654 -1.05487 
125 1 0.189643 0.198607 0.400998 -1.7313 -1.00978 1.7801 
175 1 0.190663 0.20736 0.597637 -0.977928 1.35608 2.30182 
107 1 0.298396 0.000228532 0.498727 2.59895 0.299196 0.53035 
109 1 0.39548 0.00054546 0.404519 -1.51544 -2.69052 1.72108 
112 1 0.400269 0.100024 0.506753 1.87761 0.376358 2.95957 
127 1 0.286892 0.194877 0.491626 -3.64203 -1.51484 2.87243 
129 1 0.394195 0.196955 0.409146 0.489445 -2.62129 -8.16645 
131 1 0.495077 0.204885 0.496212 -2.53768 -2.09843 -6.10597 
156 1 0.291791 0.10209 0.598442 -5.36197 1.32623 -3.18121 
179 1 0.398518 0.208898 0.598686 3.35507 -5.70535 1.67904 
110 1 0.505627 0.102938 0.410573 -3.87172 4.89467 -0.870538 
115 1 0.701609 0.0042882 0.502366 3.81328 -3.61342 -3.79402 
116 1 0.611337 0.107479 0.499879 0.424105 -0.989456 2.0232 
135 1 0.698659 0.202868 0.510444 -3.04644 -1.49784 -2.04816 
160 1 0.500321 0.107688 0.598248 -1.93481 -5.34558 -2.15116 
183 1 0.597914 0.201625 0.596886 -2.47359 2.53376 0.736291 
104 1 0.994103 0.0965671 0.50503 -1.93505 -2.63834 1.78424 
121 1 0.994585 0.201408 0.401269 -1.36118 0.29209 -0.241923 
118 1 0.894127 0.105655 0.404558 1.51259 0.995225 2.50615 
119 1 0.89999 0.00825703 0.503652 6.52757 -2.59845 -0.10902 
120 1 0.799081 0.106562 0.508508 -2.37709 1.61803 -1.95002 
137 1 0.799425 0.201949 0.407248 0.916016 -1.73162 -1.55379 
139 1 0.905916 0.196726 0.502154 -0.443137 5.53833 -3.2745 
167 1 0.804387 0.00583042 0.598514 0.945385 3.10396 0.0470757 
124 1 0.00222814 0.302895 0.495828 1.8235 -1.11351 -1.30532 
128 1 0.190212 0.304241 0.502803 3.1588 -1.24069 1.50319 
142 1 0.0982206 0.403306 0.490891 0.0568634 4.50387 -5.7839 
191 1 0.00477926 0.405302 0.594522 -5.17814 4.215 4.2061 
193 1 0.20004 0.398008 0.594492 0.081032 0.925327 0.790252 
356 1 0.408026 0.499699 0.498808 4.28715 0.0879165 1.41055 
144 1 0.292849 0.402601 0.488395 6.25392 -2.09545 -0.449242 
126 1 0.289577 0.299605 0.401256 -0.405708 0.212807 2.09748 
132 1 0.396593 0.312187 0.49578 1.65424 0.857307 -2.17611 
176 1 0.298899 0.300746 0.586626 -1.34852 3.54711 -2.4386 
355 1 0.506368 0.493093 0.401102 -2.39398 -4.72078 2.78616 
146 1 0.50628 0.39574 0.491176 3.3348 1.85678 -0.993175 
148 1 0.703538 0.404939 0.499178 -2.04786 0.472268 -0.795988 
136 1 0.604241 0.30481 0.493265 3.36349 0.578376 0.365958 
134 1 0.701834 0.299583 0.403259 -2.00923 -2.28836 1.98976 
405 1 0.503334 0.490135 0.595715 2.1408 -3.28934 3.31418 
180 1 0.501416 0.307327 0.589919 -3.8465 1.2992 0.994862 
197 1 0.604565 0.395534 0.595925 -4.39147 -0.672657 -1.14423 
150 1 0.901746 0.405308 0.498496 -0.4281 -1.30149 -0.908863 
360 1 0.801627 0.495092 0.493677 -3.05987 -0.685537 0.824075 
140 1 0.81327 0.306572 0.502636 1.4646 1.4391 -0.446994 
138 1 0.90778 0.305419 0.402055 0.3371 2.48424 -4.06584 
409 1 0.894712 0.499553 0.596031 1.29839 2.94238 -0.666702 
188 1 0.91757 0.30485 0.598149 4.50211 -4.79477 -3.02092 
152 1 0.095854 0.102342 0.602864 1.81959 -1.73327 -2.50957 
154 1 0.00455933 0.0953868 0.704989 2.68911 -2.34119 -5.56905 
158 1 0.206865 0.103786 0.70397 -1.5718 -0.200772 0.8102 
171 1 0.00290283 0.198685 0.604989 1.89447 2.32758 -3.22754 
173 1 0.106661 0.203091 0.706341 -0.13572 -1.24515 -1.04988 
221 1 0.00810351 0.206914 0.792835 -6.06073 1.48899 1.35589 
162 1 0.390154 0.100082 0.697249 -0.240317 -0.106052 -0.618422 
177 1 0.298093 0.203878 0.689074 0.0132437 -0.774441 3.08014 
161 1 0.499097 0.00612586 0.702644 1.01445 0.106267 3.98319 
181 1 0.496157 0.202629 0.699338 0.307998 1.56529 -2.35077 
164 1 0.702807 0.108861 0.606532 0.878613 2.28313 2.57702 
165 1 0.697669 0.00357137 0.704558 -0.947497 0.0692176 0.120763 
166 1 0.59457 0.0988574 0.693403 -0.970255 -1.5951 -0.803852 
185 1 0.698331 0.192594 0.700672 0.539191 -1.85859 -2.47709 
213 1 0.597437 0.00643206 0.797128 -0.65181 4.23546 -0.322732 
151 1 0.997762 0.00210527 0.603091 -1.22535 1.45038 1.35579 
168 1 0.908563 0.0993032 0.607985 0.443301 2.02557 -3.06373 
170 1 0.804836 0.101775 0.706265 2.94059 0.495051 0.89128 
187 1 0.803462 0.209088 0.603373 0.932126 -2.45823 -0.818877 
189 1 0.90278 0.202828 0.709192 -0.450537 2.41096 -5.21687 
172 1 0.0948955 0.299152 0.6065 -0.0504453 -0.439027 -2.4004 
178 1 0.20234 0.29935 0.696671 0.670342 4.22172 3.13347 
192 1 0.106286 0.39291 0.695935 8.121 -0.891336 -0.859492 
406 1 0.399298 0.498153 0.6998 -0.793681 4.91502 -0.318194 
195 1 0.396751 0.405129 0.604224 -2.66092 3.22308 -1.03061 
194 1 0.299737 0.403455 0.692971 1.54591 2.72755 -0.631172 
182 1 0.403381 0.305794 0.695128 0.178368 0.977281 2.57208 
196 1 0.501513 0.40166 0.698473 0.80887 -3.66552 0.989062 
186 1 0.602184 0.301726 0.696195 -4.98374 -0.905432 4.99076 
184 1 0.702721 0.30765 0.605136 3.83395 -1.72323 0.401757 
198 1 0.700552 0.4002 0.703595 -1.80972 -1.19426 -1.51105 
457 1 0.699514 0.495495 0.798499 -1.80655 -0.193074 4.72942 
247 1 0.595905 0.402399 0.796092 3.7683 1.93568 -2.96905 
230 1 0.501808 0.299786 0.79398 -0.560923 3.295 1.63899 
234 1 0.699953 0.296739 0.791987 0.735043 -2.21526 2.06191 
200 1 0.896068 0.404097 0.712282 -1.57658 1.01796 2.83234 
199 1 0.798865 0.401461 0.602021 -1.9373 -1.93732 5.52753 
402 1 0.998657 0.497832 0.700447 5.40078 -2.38781 -2.18051 
190 1 0.806654 0.295804 0.707929 2.36499 1.21245 1.09742 
174 1 0.996264 0.305048 0.700844 1.54117 3.69241 -0.088983 
249 1 0.79318 0.400919 0.799313 -1.52114 1.07609 2.39339 
202 1 0.109909 0.0964982 0.808775 3.28269 1.36597 -1.40426 
204 1 0.00738389 0.0932408 0.899855 -2.64483 -0.980676 4.59716 
205 1 0.20404 0.00202629 0.808486 0.181461 -1.81096 0.69751 
208 1 0.201744 0.0941953 0.905288 1.92355 0.14943 3.10281 
223 1 0.0991041 0.196569 0.896822 3.30042 0.84561 -1.24 
225 1 0.204456 0.202561 0.805702 -2.00715 2.43356 -0.573999 
206 1 0.301346 0.0987631 0.806672 0.896101 0.110121 -0.820853 
212 1 0.394605 0.100077 0.900018 -2.2659 2.65381 2.43267 
227 1 0.303268 0.198896 0.893431 2.13545 0.220528 -1.11648 
229 1 0.401282 0.194059 0.803588 5.29676 -0.265035 -1.03292 
210 1 0.493603 0.105973 0.805007 0.609912 0.381915 -0.881677 
211 1 0.497694 0.00364138 0.898142 -1.74799 -1.78119 7.54603 
29 1 0.401374 0.194913 0.993008 -1.09737 2.48184 -1.01217 
214 1 0.694907 0.100915 0.804102 4.17525 -6.31604 3.07863 
216 1 0.596342 0.0943487 0.892142 5.56228 -3.61667 -0.61221 
231 1 0.506048 0.201875 0.894334 1.3686 4.92952 -0.629198 
233 1 0.60074 0.207595 0.800477 -3.29345 0.0509931 -2.93223 
235 1 0.69735 0.198265 0.895795 -1.68752 -2.34866 -1.71265 
14 1 0.695487 0.101198 0.990213 0.241379 -1.02359 0.568092 
217 1 0.802842 0.00452087 0.805703 0.052978 -0.198606 -1.7501 
218 1 0.897378 0.100563 0.80363 -2.14962 -0.25835 -0.957899 
220 1 0.806979 0.101577 0.906111 0.0688826 0.362175 -6.6188 
237 1 0.797794 0.201301 0.806981 0.344823 -2.61994 1.85944 
239 1 0.909206 0.198725 0.896794 -0.129348 0.596538 -0.522314 
37 1 0.79844 0.202154 0.993415 -0.730935 0.228824 -0.014769 
454 1 0.197383 0.487364 0.900459 -2.39902 -1.18167 -0.246441 
222 1 0.103473 0.298881 0.801753 -0.174378 -0.127999 -3.56906 
224 1 0.0085893 0.298503 0.901404 -3.38942 1.59052 0.397074 
228 1 0.197739 0.301294 0.909963 -0.316658 1.75892 3.09517 
241 1 0.00572054 0.398641 0.801234 3.2227 -0.173934 3.26367 
242 1 0.0984908 0.396645 0.900533 -1.25093 3.41859 -2.62934 
243 1 0.205325 0.39131 0.800538 -2.02602 -2.21919 2.13476 
452 1 0.0026054 0.498322 0.896694 -0.587857 0.918247 0.875513 
451 1 0.1026 0.499808 0.801172 -7.88715 0.707874 -1.1618 
455 1 0.498134 0.493825 0.801887 -2.04341 -3.23642 -2.65342 
226 1 0.312659 0.306152 0.800288 -0.0250006 4.22258 -2.4666 
232 1 0.40281 0.299685 0.898914 4.01858 1.29349 -0.915865 
244 1 0.299172 0.392385 0.905059 -2.67651 -2.66029 -1.96915 
245 1 0.406685 0.401581 0.805359 -0.809547 -0.397459 -0.751913 
253 1 0.30041 0.496728 0.996841 -0.713397 3.0099 2.55674 
30 1 0.499657 0.295894 0.996739 -0.448411 1.2639 -0.834224 
45 1 0.396412 0.404263 0.992882 2.38444 1.32446 3.93071 
458 1 0.598322 0.495911 0.895757 2.37096 -0.900995 2.83395 
248 1 0.699866 0.39406 0.89819 -3.94497 3.1813 0.0349786 
236 1 0.603788 0.307506 0.900064 -3.19832 -1.54844 -0.7569 
246 1 0.506349 0.394653 0.909871 -0.285069 6.75394 -3.16981 
47 1 0.60663 0.403846 0.999929 -0.826626 1.13299 -0.939983 
34 1 0.706149 0.29363 0.993987 -2.80454 -1.21155 1.5636 
250 1 0.898974 0.406498 0.894836 -2.25144 4.89608 -2.28881 
460 1 0.803716 0.494498 0.907846 -1.67308 -0.277047 -1.87297 
240 1 0.798187 0.304225 0.890305 0.922941 1.60586 3.2858 
238 1 0.899668 0.301447 0.804143 0.367852 0.740024 -1.25088 
49 1 0.798079 0.396196 0.99901 0.742801 -2.88703 1.35682 
38 1 0.906718 0.303147 0.997552 -4.37779 -0.887031 -1.94931 
251 1 0.10403 0.50001 0.00959824 -1.18273 -1.17522 4.11412 
254 1 0.2014 0.503067 0.108432 0.338262 5.72914 -0.0997917 
263 1 0.0946165 0.600829 0.105883 -1.20411 -1.0812 2.798 
264 1 0.00649867 0.71274 0.097697 1.7443 -1.82422 0.274914 
265 1 0.206321 0.603021 0.000733338 -2.511 -0.603055 -4.94676 
268 1 0.193282 0.688172 0.101847 -0.551564 -0.0795463 0.472677 
267 1 0.308257 0.604538 0.104942 0.0247351 -0.464656 -2.95527 
272 1 0.413 0.692816 0.109641 4.14825 2.21895 0.178269 
270 1 0.498148 0.699473 0.00370049 -1.24223 2.92399 5.56221 
271 1 0.503535 0.595366 0.101944 3.25814 -3.15852 1.55527 
273 1 0.608834 0.596069 0.00850357 -4.01229 -2.50092 -0.691263 
275 1 0.707476 0.601481 0.0906136 0.832873 1.22956 -2.42198 
276 1 0.599919 0.701114 0.0958306 -4.86136 -0.86683 0.833578 
307 1 0.716349 0.503677 0.193534 -2.21234 -5.32993 -3.1675 
320 1 0.507959 0.698843 0.198318 1.2799 1.41787 1.21633 
323 1 0.601499 0.598136 0.194359 2.34887 0.799552 4.25594 
324 1 0.694501 0.701509 0.199917 1.05151 -1.57738 -2.51362 
252 1 0.999952 0.50203 0.105321 -2.08798 4.88517 0.0680621 
260 1 0.809151 0.50128 0.0962153 1.08233 -5.47672 0.884074 
279 1 0.899541 0.604257 0.091215 -0.184686 0.200683 -3.11384 
280 1 0.800785 0.702394 0.0959358 2.13715 -2.72345 0.384251 
311 1 0.99372 0.603641 0.197483 -0.425113 0.129069 -3.70358 
309 1 0.896398 0.50558 0.198969 -0.70993 -0.956374 -1.27831 
327 1 0.800086 0.607468 0.192948 -0.554444 2.28733 -3.14124 
328 1 0.895559 0.702757 0.188778 -0.692222 -1.51545 0.121119 
5 1 0.207854 0.99938 0.00972492 0.37041 2.11228 2.39087 
3 1 0.0964579 0.990652 0.0945356 -2.58272 -2.16233 -1.86351 
288 1 0.203659 0.907206 0.110521 2.92706 -2.38685 1.35932 
283 1 0.101362 0.809989 0.11375 5.66906 4.6379 4.12755 
285 1 0.20155 0.797132 0.00160488 0.635007 2.44186 1.58529 
335 1 0.204629 0.801352 0.194824 -1.95815 -2.10122 -2.17327 
9 1 0.402556 0.998953 0.00504213 3.23862 0.665615 -0.965004 
292 1 0.409598 0.891684 0.100188 -3.33088 0.396642 2.43007 
287 1 0.309298 0.792651 0.0952373 4.86215 -0.983205 -2.71843 
286 1 0.29606 0.896674 0.000155489 -3.13588 3.02841 -0.172396 
336 1 0.305778 0.905302 0.192085 -1.20756 1.42687 -0.111771 
15 1 0.70059 0.992906 0.089061 3.26022 1.57589 -2.0284 
13 1 0.59995 0.989036 0.00409127 -1.48973 1.32807 3.04668 
11 1 0.507679 0.996089 0.101272 3.33538 3.43563 0.839624 
295 1 0.696323 0.802207 0.104913 -0.822427 -1.59719 -2.04948 
291 1 0.50838 0.798751 0.101928 1.1596 -0.798969 -3.65052 
296 1 0.597256 0.900962 0.102163 -2.53472 4.25228 -0.084377 
344 1 0.703919 0.909005 0.195188 2.41824 4.23466 -0.212722 
300 1 0.804512 0.904308 0.0912055 -1.48687 -0.439139 -3.27449 
299 1 0.890158 0.795699 0.0952744 1.38203 3.57471 0.587106 
284 1 0.989273 0.897512 0.102222 0.236338 2.09348 0.588161 
67 1 0.8016 0.999939 0.196098 0.277401 3.482 0.585271 
347 1 0.803264 0.798633 0.198828 1.3318 0.186772 2.22209 
301 1 0.098266 0.500061 0.202095 -2.34644 -3.45713 1.72356 
304 1 0.194959 0.502692 0.294027 0.0687319 -0.625424 0.598269 
312 1 0.091938 0.708335 0.206149 -4.03107 1.74258 0.808175 
313 1 0.0909532 0.608797 0.29324 -1.6708 -2.14287 -1.12263 
315 1 0.190297 0.59913 0.20218 0.294903 -4.67659 1.34512 
318 1 0.201279 0.70197 0.293 0.536777 -0.929803 3.0212 
351 1 0.0944812 0.508083 0.39588 -2.87204 1.38235 -0.495322 
362 1 0.105273 0.694763 0.391457 -3.62085 1.56103 -2.20785 
365 1 0.193867 0.604352 0.390405 1.21951 -0.220411 -2.22548 
316 1 0.298855 0.694496 0.2037 -0.563284 2.13687 3.22683 
317 1 0.300806 0.596707 0.288542 2.67707 1.99175 -2.90979 
319 1 0.407045 0.598027 0.200708 1.75074 -2.45812 0.910589 
322 1 0.398371 0.695768 0.298366 -2.51958 1.28482 -0.246303 
321 1 0.498006 0.617394 0.299514 -2.98279 1.14336 0.128567 
353 1 0.300937 0.501724 0.390947 5.90779 -1.92266 -1.44351 
366 1 0.296301 0.696476 0.399206 3.57498 0.501454 -2.00891 
369 1 0.411126 0.602499 0.398604 0.86271 -1.60442 1.80823 
308 1 0.598337 0.501964 0.287569 -0.368897 2.72397 0.743288 
325 1 0.69854 0.605602 0.308357 -0.126678 2.76211 -4.01216 
326 1 0.603519 0.697018 0.301139 1.5674 -1.07453 -2.67236 
357 1 0.69906 0.50113 0.386599 -0.332599 -2.92706 -1.19644 
370 1 0.505807 0.703334 0.397653 3.15251 2.69257 -3.00022 
302 1 0.993275 0.51196 0.296437 0.0215234 2.3734 0.691523 
314 1 0.999549 0.707117 0.310545 2.41583 0.0664312 1.55709 
310 1 0.800675 0.50193 0.300843 0.491444 1.20723 -1.35193 
329 1 0.896305 0.602176 0.294073 1.74352 -1.86051 -1.27286 
330 1 0.795488 0.699824 0.299695 -2.51345 0.643913 0.0246754 
378 1 0.897861 0.694404 0.391933 0.305157 -2.83731 -1.13781 
332 1 0.0946019 0.904585 0.208876 -2.89557 0.307993 -0.243603 
333 1 0.0986704 0.808276 0.30533 -0.391687 1.2007 5.45193 
338 1 0.195669 0.902975 0.292555 -4.40464 0.000839494 2.0992 
385 1 0.201982 0.80373 0.393303 3.18097 1.68845 1.55534 
57 1 0.293777 0.995188 0.301431 -2.57636 3.00202 -1.94107 
341 1 0.492226 0.805464 0.296381 3.00716 -0.610473 -0.379247 
342 1 0.396644 0.900384 0.306279 -0.00273042 2.16537 -1.19916 
339 1 0.394163 0.796587 0.206344 -5.02095 3.09909 1.03735 
337 1 0.298979 0.805752 0.304211 5.68864 1.15751 -5.48723 
390 1 0.492948 0.899905 0.397036 1.32878 -4.05921 3.44416 
65 1 0.698562 0.99874 0.303409 0.137018 -0.668284 1.14547 
346 1 0.601213 0.909198 0.296569 -2.81931 0.344673 0.134185 
345 1 0.698646 0.804473 0.30098 -0.46091 -1.19967 -7.12834 
343 1 0.595454 0.802313 0.20246 -1.5048 -1.22587 2.70524 
340 1 0.500029 0.903811 0.206727 -3.77067 -0.00538655 1.33109 
393 1 0.591216 0.804547 0.399015 0.390904 -2.92907 -0.666443 
350 1 0.797647 0.905263 0.307953 1.45887 -3.59856 0.551912 
349 1 0.896433 0.797532 0.303079 2.00788 3.65378 -0.504143 
348 1 0.885202 0.906242 0.202587 -2.33984 2.07597 -1.712 
51 1 0.993334 0.999671 0.20405 1.28467 2.28256 1.02927 
331 1 0.996455 0.803724 0.202646 -0.126157 -0.662737 2.00251 
334 1 0.988795 0.904889 0.307292 -4.19772 0.992447 3.53209 
352 1 0.0022072 0.50293 0.49503 -4.30865 -5.07208 5.21271 
354 1 0.199042 0.504591 0.484898 0.981557 1.99026 -1.6896 
363 1 0.108298 0.599364 0.494729 -0.323697 -0.730774 -4.3744 
364 1 0.00129999 0.690348 0.511127 -0.782323 0.534308 -0.331724 
368 1 0.204378 0.697374 0.495862 1.56286 -3.61222 -0.894237 
401 1 0.106982 0.508373 0.596128 0.0328464 2.64307 1.49721 
412 1 0.0978501 0.700211 0.595872 -1.62448 -1.11502 -2.44834 
415 1 0.20197 0.595082 0.591854 -0.875773 4.93157 3.51729 
367 1 0.302582 0.590407 0.492431 -5.56958 -2.78801 3.28818 
372 1 0.402579 0.695018 0.499894 2.40054 -2.36168 0.395986 
371 1 0.498476 0.600052 0.506529 -0.37523 2.6612 0.710831 
403 1 0.294073 0.500487 0.594992 -0.900498 -1.99444 1.61493 
416 1 0.298375 0.705286 0.599664 3.19804 1.06832 -1.52633 
358 1 0.603426 0.500641 0.489854 -0.376235 0.376409 0.774031 
373 1 0.594841 0.595518 0.404868 -0.205134 -0.241301 0.709713 
374 1 0.701134 0.700841 0.403668 -2.33197 0.759378 -0.706243 
375 1 0.70015 0.5958 0.503537 -0.561568 -2.18705 0.506934 
376 1 0.604418 0.695779 0.500186 2.83661 1.26595 -1.73059 
423 1 0.599698 0.595844 0.594391 -2.68806 -2.35701 -0.31633 
361 1 0.999207 0.6038 0.40593 1.28266 -3.50756 2.81423 
359 1 0.898928 0.500822 0.400631 -1.86819 0.245692 -7.51855 
377 1 0.793815 0.603727 0.403486 1.7804 -0.94583 1.00529 
379 1 0.89588 0.599163 0.503009 -3.10366 5.14913 -3.44474 
380 1 0.791995 0.698578 0.510104 1.22449 3.61774 2.20407 
427 1 0.792553 0.598805 0.594793 0.661703 0.0663804 -1.81115 
103 1 0.0890906 0.997901 0.507552 0.428597 0.0380054 -4.19019 
382 1 0.0949586 0.901755 0.410542 -0.139806 -4.17825 -3.05578 
383 1 0.100736 0.797381 0.497323 2.19495 -3.59634 -2.67029 
384 1 0.00100125 0.889007 0.503963 -0.895606 -0.897923 0.0558872 
388 1 0.204289 0.895484 0.498205 0.888342 1.08014 -3.17049 
155 1 0.191957 0.993532 0.598676 1.8382 1.04652 2.80974 
435 1 0.200866 0.798764 0.598858 -1.74113 -1.42542 -0.959561 
111 1 0.497512 0.989506 0.512552 2.51948 -5.10534 -0.205623 
386 1 0.297224 0.900328 0.401079 0.520591 0.821761 -1.73801 
387 1 0.305145 0.797064 0.495569 -5.70661 2.5891 3.91264 
389 1 0.394924 0.797645 0.404297 1.417 1.15677 4.73839 
392 1 0.399035 0.896162 0.50606 1.02889 0.263285 4.82336 
439 1 0.400784 0.792902 0.598137 -0.906202 0.865264 -2.98298 
113 1 0.595418 0.995872 0.407705 1.37888 -0.169225 1.05968 
396 1 0.602839 0.894593 0.506044 -2.94467 -3.26217 -4.08681 
395 1 0.700006 0.798358 0.504161 -0.625329 1.12168 -2.14057 
394 1 0.693354 0.894324 0.402798 7.00209 0.941712 -1.0276 
391 1 0.501633 0.799932 0.498407 3.2389 -4.22063 0.840541 
163 1 0.594461 0.999472 0.598674 0.344125 0.312663 0.631009 
443 1 0.605325 0.800544 0.597589 -0.620037 -4.50422 1.61084 
117 1 0.792057 0.999081 0.405244 -2.55922 6.17643 0.687012 
400 1 0.793394 0.902594 0.507032 1.41167 3.87012 0.810484 
101 1 0.991651 0.991718 0.407335 2.19394 -1.00067 0.573545 
397 1 0.801013 0.79424 0.404427 0.561376 5.98431 3.58322 
399 1 0.891837 0.791376 0.502409 -1.45495 3.96433 0.670821 
398 1 0.893872 0.896761 0.414385 0.346021 2.237 -1.94885 
381 1 0.994134 0.798395 0.408314 3.59639 3.1114 4.67326 
448 1 0.902002 0.902421 0.597059 1.32315 4.87802 -0.228981 
431 1 0.990003 0.794538 0.596168 -1.12406 2.16012 -1.36975 
404 1 0.205501 0.505138 0.698976 3.60362 0.893157 0.00797289 
411 1 0.0108732 0.593944 0.604315 2.62271 -1.67613 -1.97703 
413 1 0.103432 0.596543 0.703901 2.53293 -4.42552 0.729772 
414 1 0.00141631 0.705559 0.699582 -0.456087 3.13785 0.701264 
418 1 0.194666 0.696683 0.69263 2.28546 -3.00052 -2.52691 
462 1 0.100457 0.699773 0.799789 1.39485 -1.46379 1.9124 
417 1 0.299481 0.601452 0.700996 1.96431 -1.03001 -0.160542 
419 1 0.395732 0.597068 0.602517 -3.27577 -2.71374 3.96236 
422 1 0.402394 0.702156 0.69696 -0.235127 1.1063 1.41958 
421 1 0.499463 0.595914 0.701555 -1.70682 2.2504 1.97875 
469 1 0.399989 0.600492 0.798362 3.17962 -1.11182 1.11982 
407 1 0.697633 0.503143 0.602818 2.80646 -3.02072 0.143698 
408 1 0.601326 0.503754 0.700218 -1.44656 1.75167 1.32962 
420 1 0.502729 0.70242 0.611078 -1.12768 -0.948051 -4.96061 
424 1 0.692674 0.695945 0.600932 0.551421 -1.01116 -0.440859 
425 1 0.703298 0.598902 0.699249 -3.1419 2.67371 2.84796 
426 1 0.599944 0.701413 0.704413 1.14419 -0.332539 -1.5724 
410 1 0.796738 0.506238 0.703481 -1.2333 2.94136 3.24287 
428 1 0.89757 0.693946 0.603426 0.679749 -0.566551 0.170113 
429 1 0.897959 0.594861 0.695125 0.490587 2.97963 -2.20677 
430 1 0.786732 0.704912 0.707771 -2.8227 0.248771 2.11553 
459 1 0.896934 0.502805 0.797535 1.25837 -3.68064 1.92624 
478 1 0.897551 0.688947 0.793418 -0.661835 0.384406 -2.64851 
153 1 0.10064 0.990714 0.701504 1.98758 5.44054 0.859493 
432 1 0.0958484 0.89759 0.603998 1.10936 2.33848 3.19317 
433 1 0.0986086 0.802754 0.695553 0.98546 -3.86653 3.19908 
434 1 0.0012941 0.899614 0.705622 0.551819 -1.61316 -3.57584 
438 1 0.198154 0.89414 0.693937 -0.740427 -0.445408 0.705037 
201 1 0.00726121 0.986863 0.79754 1.67325 -1.40675 -0.401097 
482 1 0.108431 0.898183 0.796894 -0.376565 0.786017 2.31108 
485 1 0.193402 0.797907 0.797426 -3.18307 0.644869 0.38505 
159 1 0.397986 0.995865 0.605648 -4.08737 0.602305 2.18998 
157 1 0.296089 0.994875 0.696927 4.96064 2.80264 2.17335 
440 1 0.49932 0.897646 0.605092 4.48836 -0.837807 0.22464 
442 1 0.39088 0.901683 0.700893 -3.17883 -2.84104 2.58862 
436 1 0.300555 0.894567 0.600363 -5.84557 -0.875898 1.9207 
437 1 0.29403 0.791138 0.697674 3.93379 -1.73803 0.700308 
209 1 0.395247 0.994962 0.797637 4.71398 1.38038 -0.840906 
486 1 0.298638 0.899227 0.796859 -1.47146 -0.94321 -4.27378 
446 1 0.593203 0.911321 0.702375 -1.7435 -2.16158 -0.749199 
445 1 0.696288 0.80388 0.693052 0.996051 3.11777 2.47818 
444 1 0.698061 0.911196 0.606449 -4.66355 1.04167 -4.26434 
441 1 0.500626 0.803463 0.696042 -0.0266237 3.05765 -2.51351 
494 1 0.705511 0.898772 0.791881 1.61061 -0.402183 4.12809 
169 1 0.912801 0.995867 0.702816 -0.974879 0.779833 1.72109 
450 1 0.80842 0.905403 0.703118 3.38257 -1.24909 -0.320882 
449 1 0.898352 0.801978 0.69711 -2.42023 -2.28522 -2.80706 
447 1 0.794686 0.800064 0.60236 0.637044 -0.621761 0.579109 
498 1 0.898362 0.899124 0.797681 -2.63966 -2.22245 -0.683561 
497 1 0.802064 0.797119 0.796204 0.682036 -3.0398 -3.86632 
481 1 0.999025 0.7965 0.791421 0.544868 1.79853 -2.55406 
461 1 0.00862391 0.597858 0.800649 0.856653 -0.243757 -0.243837 
463 1 0.107437 0.593025 0.905427 -1.90548 4.08646 -2.68627 
464 1 0.00273753 0.708486 0.898165 3.92505 2.29596 2.97704 
465 1 0.202587 0.600699 0.800827 -1.79393 -0.0642971 -0.77274 
468 1 0.206983 0.700976 0.900392 -4.51487 -0.371875 1.1313 
262 1 0.106975 0.698424 0.999305 0.491409 -2.03881 0.263566 
453 1 0.298523 0.504679 0.800703 -2.76976 1.10077 -3.48641 
456 1 0.401597 0.502552 0.898106 -0.211313 -5.33117 1.28168 
466 1 0.299756 0.696396 0.800675 2.84856 -1.72127 -2.86792 
467 1 0.297667 0.59274 0.906943 3.54032 1.30901 1.14969 
472 1 0.40964 0.695418 0.898163 -1.62541 3.51685 0.54973 
470 1 0.497698 0.694247 0.802108 -2.128 -0.347837 -3.18734 
266 1 0.30833 0.697277 0.998217 -0.156982 -6.82502 -5.12993 
269 1 0.403164 0.599263 0.996421 5.97207 1.0653 1.42352 
471 1 0.502535 0.601041 0.890424 1.94465 -0.506963 1.2052 
473 1 0.596828 0.593504 0.803018 -0.953802 2.36813 2.64414 
474 1 0.697394 0.702866 0.808281 -1.06818 -3.26572 2.38438 
475 1 0.704702 0.599593 0.901179 -3.19296 -0.719954 3.68005 
476 1 0.594966 0.699876 0.9074 -1.50884 -0.432284 -1.74585 
255 1 0.504916 0.506671 0.990482 -2.1971 -1.66398 3.16566 
274 1 0.688197 0.710329 0.99996 -0.718869 -4.13805 1.09106 
477 1 0.799105 0.598647 0.801556 6.24817 0.518784 -1.10425 
479 1 0.90234 0.59954 0.893876 -0.348557 0.758691 -1.7958 
480 1 0.807963 0.705605 0.901241 -1.48656 2.51699 1.51279 
261 1 0.999114 0.602795 0.998234 0.827841 -0.752858 -1.13257 
277 1 0.801732 0.613739 0.995704 1.25934 3.80493 -2.75725 
278 1 0.902424 0.702397 0.994033 2.70893 -0.413289 2.12967 
203 1 0.106955 0.996115 0.914833 -3.61209 -2.69119 2.87205 
483 1 0.100346 0.796993 0.895557 -1.56567 1.88607 -3.88073 
488 1 0.205263 0.898736 0.902517 2.48346 -5.79854 3.77486 
1 1 0.00303566 0.99958 0.997856 -2.47649 -5.30338 -2.11791 
282 1 0.101188 0.888534 0.99775 -2.94856 -0.344983 -3.36306 
207 1 0.300712 0.995108 0.901923 1.10647 -0.575803 1.54446 
491 1 0.494641 0.802851 0.898634 0.741281 -0.899998 -0.152389 
492 1 0.390968 0.895132 0.890985 -3.22609 -3.13543 1.58084 
489 1 0.393946 0.800464 0.803343 -3.30715 -3.19 6.86683 
487 1 0.302522 0.791464 0.899331 -3.57268 0.936865 -1.99631 
290 1 0.497092 0.903602 0.990535 -2.5468 -1.5014 -1.3709 
289 1 0.404095 0.800487 0.995697 -0.523393 -4.4652 1.71748 
215 1 0.694615 0.989304 0.90153 -2.82388 -3.43964 -3.44636 
496 1 0.599004 0.89177 0.902301 1.25467 0.634076 -1.06926 
495 1 0.704791 0.800906 0.891979 3.01931 3.2064 -2.32762 
493 1 0.594164 0.802403 0.801361 -1.44163 -3.84143 -1.32742 
490 1 0.500277 0.902711 0.801046 -0.200853 -2.82727 0.20776 
294 1 0.699514 0.893747 0.992777 2.21176 0.714089 -1.19318 
293 1 0.59823 0.802656 0.997854 -3.08778 0.501303 2.23734 
500 1 0.804086 0.903368 0.899422 3.51166 2.60043 1.12404 
499 1 0.902045 0.809037 0.889868 5.1189 -0.158635 1.92439 
219 1 0.909375 0.997147 0.901092 -0.992023 -1.14226 -0.0763135 
484 1 0.998894 0.897247 0.896589 4.07607 -0.304583 2.17442 
17 1 0.803226 0.996746 0.992393 3.16692 0.910248 3.35946 