ITEM: TIMESTEP
0
ITEM: NUMBER OF ATOMS
500
ITEM: BOX BOUNDS pp pp pp
0 18.144
0 18.144
0 18.144
ITEM: ATOMS id type xs ys zs vx vy vz 
1 1 0 0 0 -0.262226 -4.19176 0.656782 
2 1 0.1 0.1 0 -1.46278 1.13021 -0.637067 
3 1 0.1 0 0.1 1.70034 -2.13581 2.67147 
4 1 0 0.1 0.1 1.94156 -2.60246 0.975572 
5 1 0.2 0 0 0.465487 -0.369598 0.539069 
8 1 0.2 0.1 0.1 2.04285 -0.744816 0.198191 
11 1 0 0.2 0 -0.796223 0.0206715 2.58101 
13 1 0.1 0.2 0.1 -0.526452 -4.4451 0.499697 
15 1 0.2 0.2 0 1.92935 0.479688 -0.040373 
26 1 0 0 0.2 0.895568 -0.379884 0.327185 
27 1 0.1 0.1 0.2 -1.60714 -2.22638 -3.97118 
30 1 0.2 0 0.2 4.27601 2.44748 1.51547 
36 1 0 0.2 0.2 2.2034 0.0594419 2.09307 
40 1 0.2 0.2 0.2 -1.0063 -0.993283 1.05403 
6 1 0.3 0.1 0 0.0545656 -3.76548 -0.66195 
7 1 0.3 0 0.1 -0.975679 -3.57274 -1.27829 
9 1 0.4 0 0 -3.85703 4.66073 -0.17058 
10 1 0.4 0.1 0.1 0.282593 3.07481 -1.47175 
17 1 0.3 0.2 0.1 1.90107 3.0532 3.74469 
19 1 0.4 0.2 0 -0.877679 -2.33622 0.232821 
31 1 0.3 0.1 0.2 0.324853 -2.896 0.42407 
34 1 0.4 0 0.2 -0.14848 -1.13701 0.0107114 
44 1 0.4 0.2 0.2 -3.30663 1.46204 1.12354 
12 1 0.1 0.3 0 0.31759 1.71638 1.98419 
14 1 0 0.3 0.1 7.89121 0.141712 -2.76925 
18 1 0.2 0.3 0.1 1.71443 -1.52979 -0.521395 
21 1 0 0.4 0 -1.12781 -0.639657 -0.120802 
22 1 0.1 0.4 0.1 2.52511 0.144597 0.38674 
23 1 0.2 0.4 0 1.8705 1.27507 -0.725853 
37 1 0.1 0.3 0.2 1.6448 2.29962 4.6 
46 1 0 0.4 0.2 1.65191 -0.2591 0.308347 
48 1 0.2 0.4 0.2 -0.00537825 2.53885 1.42745 
16 1 0.3 0.3 0 -0.467201 0.0916424 -0.436967 
20 1 0.4 0.3 0.1 1.23849 2.42371 -1.79482 
24 1 0.3 0.4 0.1 -1.21011 1.80019 0.481594 
25 1 0.4 0.4 0 2.7587 3.08337 1.0461 
41 1 0.3 0.3 0.2 -2.58007 0.181771 -1.68383 
50 1 0.4 0.4 0.2 2.83207 -0.438203 2.08129 
28 1 0.1 0 0.3 -1.84221 0.073113 0.158107 
29 1 0 0.1 0.3 -2.5492 1.35143 1.48759 
33 1 0.2 0.1 0.3 0.106463 -0.440889 3.1227 
38 1 0.1 0.2 0.3 4.22817 2.0579 0.73415 
51 1 0 0 0.4 4.35047 -0.573232 -0.703837 
52 1 0.1 0.1 0.4 -5.11291 -3.55143 -1.26055 
53 1 0.2 0 0.4 -3.17407 1.98582 3.627 
56 1 0 0.2 0.4 1.39484 1.1046 -0.238442 
58 1 0.2 0.2 0.4 -1.7075 -1.54959 3.01947 
32 1 0.3 0 0.3 1.26748 -1.09058 1.7451 
35 1 0.4 0.1 0.3 1.80231 -2.14549 0.394895 
42 1 0.3 0.2 0.3 -2.63575 -3.71193 1.38115 
54 1 0.3 0.1 0.4 -1.19726 3.21864 -2.22212 
55 1 0.4 0 0.4 3.46502 -2.28525 -0.758151 
60 1 0.4 0.2 0.4 4.22614 -0.413516 -0.0921735 
39 1 0 0.3 0.3 2.58638 -1.27015 1.97822 
43 1 0.2 0.3 0.3 0.115053 2.79258 1.95321 
47 1 0.1 0.4 0.3 -2.21994 -2.76005 -2.07705 
57 1 0.1 0.3 0.4 0.136308 -1.09163 -0.420902 
61 1 0 0.4 0.4 -2.63671 -1.4925 -0.447581 
62 1 0.2 0.4 0.4 -0.12872 0.943345 3.90562 
45 1 0.4 0.3 0.3 2.25652 3.60065 0.636811 
49 1 0.3 0.4 0.3 -4.00702 3.81674 -0.166964 
59 1 0.3 0.3 0.4 -1.3781 1.14484 -2.6521 
63 1 0.4 0.4 0.4 6.56273 2.30189 2.53117 
64 1 0.1 0 0.5 1.079 0.605743 -2.91053 
65 1 0 0.1 0.5 -2.31274 -2.51088 3.59941 
67 1 0.2 0.1 0.5 5.82385 -2.10425 -0.614916 
69 1 0.1 0.2 0.5 5.05505 -2.25037 4.18714 
76 1 0 0 0.6 -2.85238 3.83912 -3.04402 
77 1 0.1 0.1 0.6 -1.18596 0.553359 -0.594761 
78 1 0.1 0 0.7 4.226 -1.22753 4.84236 
79 1 0 0.1 0.7 5.94896 0.755838 -0.757723 
80 1 0.2 0 0.6 2.92906 3.7931 -1.35942 
83 1 0.2 0.1 0.7 0.0574031 3.82346 0.673651 
86 1 0 0.2 0.6 -1.26276 -0.734658 -0.649528 
88 1 0.1 0.2 0.7 1.44846 -0.105728 -2.70814 
90 1 0.2 0.2 0.6 0.448453 1.25102 -0.524626 
66 1 0.3 0 0.5 5.25708 4.03248 1.52532 
68 1 0.4 0.1 0.5 -1.79573 -0.437811 0.113834 
71 1 0.3 0.2 0.5 -0.804678 -6.85464 1.77623 
81 1 0.3 0.1 0.6 0.275833 1.77279 -0.635926 
82 1 0.3 0 0.7 -2.62126 -4.22824 -0.116956 
84 1 0.4 0 0.6 -0.758194 1.5318 0.348134 
85 1 0.4 0.1 0.7 2.67203 -0.528462 -2.83236 
92 1 0.3 0.2 0.7 1.20953 -4.7929 1.62998 
94 1 0.4 0.2 0.6 -1.8451 -1.30573 2.89044 
70 1 0 0.3 0.5 1.725 2.35396 -5.28674 
72 1 0.2 0.3 0.5 1.94338 -0.786762 -0.623335 
74 1 0.1 0.4 0.5 -2.08933 -4.75565 0.219115 
87 1 0.1 0.3 0.6 -4.05343 0.888569 1.11221 
89 1 0 0.3 0.7 1.8166 -0.0127299 0.496138 
93 1 0.2 0.3 0.7 -2.30881 -2.34547 -3.35719 
96 1 0 0.4 0.6 0.562024 -4.01861 -0.283247 
97 1 0.1 0.4 0.7 1.62047 1.35052 -4.23673 
98 1 0.2 0.4 0.6 3.8004 -6.33108 -2.31218 
73 1 0.4 0.3 0.5 -0.621166 1.09678 -6.19729 
75 1 0.3 0.4 0.5 0.00191301 0.796157 -1.74848 
91 1 0.3 0.3 0.6 -2.79858 1.93508 4.01012 
95 1 0.4 0.3 0.7 1.59034 -3.34744 6.07378 
99 1 0.3 0.4 0.7 -5.07259 0.760588 -2.37641 
100 1 0.4 0.4 0.6 1.33084 1.08476 -0.898001 
101 1 0 0 0.8 4.82234 1.38491 0.655997 
102 1 0.1 0.1 0.8 -1.89101 1.74662 -3.10708 
103 1 0.1 0 0.9 2.42677 -1.02308 1.89991 
104 1 0 0.1 0.9 4.24137 -0.97496 0.996355 
105 1 0.2 0 0.8 2.87052 3.0743 -1.812 
108 1 0.2 0.1 0.9 -0.0676061 1.20179 -1.56912 
111 1 0 0.2 0.8 -2.27332 0.50281 -1.03355 
113 1 0.1 0.2 0.9 3.10453 -0.532905 1.55285 
115 1 0.2 0.2 0.8 -1.96115 0.42962 0.25702 
106 1 0.3 0.1 0.8 1.99962 -2.84928 0.591855 
107 1 0.3 0 0.9 5.12632 0.25264 0.587845 
109 1 0.4 0 0.8 -3.35357 2.57336 -3.14786 
110 1 0.4 0.1 0.9 0.311457 -1.2033 2.09211 
117 1 0.3 0.2 0.9 -5.20757 3.81972 -4.73055 
119 1 0.4 0.2 0.8 -4.53202 5.861 0.505706 
112 1 0.1 0.3 0.8 1.51782 1.60249 1.48553 
114 1 0 0.3 0.9 -1.39355 0.557932 2.98022 
118 1 0.2 0.3 0.9 -1.22815 1.31235 -1.70832 
121 1 0 0.4 0.8 -2.68307 -2.57262 -1.54589 
122 1 0.1 0.4 0.9 -0.450895 -0.873934 -3.83828 
123 1 0.2 0.4 0.8 -1.42371 -1.2618 -0.859112 
116 1 0.3 0.3 0.8 2.87205 -0.606728 2.35769 
120 1 0.4 0.3 0.9 -0.112477 3.36542 -1.04854 
124 1 0.3 0.4 0.9 0.347229 -2.92082 -0.0863069 
125 1 0.4 0.4 0.8 0.045311 0.0962547 3.16338 
126 1 0.1 0.5 0 -1.14947 -0.401999 2.6995 
127 1 0 0.5 0.1 0.868213 3.16241 2.29737 
129 1 0.2 0.5 0.1 1.23622 2.46781 -0.741805 
131 1 0 0.6 0 1.47022 5.38449 -5.47643 
132 1 0.1 0.7 0 0.0958966 1.92988 -1.89729 
133 1 0.1 0.6 0.1 -4.45748 -0.367702 3.05788 
134 1 0 0.7 0.1 1.43516 0.0248823 -1.22253 
135 1 0.2 0.6 0 -0.0907294 2.79562 0.888121 
138 1 0.2 0.7 0.1 0.959615 -0.542879 -0.00270997 
151 1 0.1 0.5 0.2 -1.49505 -1.00227 -2.52809 
156 1 0 0.6 0.2 -0.543319 -2.41778 1.68332 
157 1 0.1 0.7 0.2 1.71111 -4.20365 0.861276 
160 1 0.2 0.6 0.2 -7.13649 -1.40257 0.198293 
128 1 0.3 0.5 0 -1.4548 -1.35311 -0.133602 
130 1 0.4 0.5 0.1 1.96608 -1.64253 1.70942 
136 1 0.3 0.7 0 2.27009 -1.5937 3.16913 
137 1 0.3 0.6 0.1 -0.124066 -1.25059 -0.378897 
139 1 0.4 0.6 0 5.02455 2.026 -0.666362 
140 1 0.4 0.7 0.1 0.956745 -0.94362 -0.549095 
153 1 0.3 0.5 0.2 -3.10344 -1.57423 -3.01133 
161 1 0.3 0.7 0.2 -2.60445 1.40242 0.367514 
164 1 0.4 0.6 0.2 0.4458 -1.44999 -0.069528 
141 1 0 0.8 0 2.86411 -1.42619 0.603458 
142 1 0.1 0.9 0 3.41415 -2.17474 0.179284 
143 1 0.1 0.8 0.1 5.30413 0.745683 7.54042 
144 1 0 0.9 0.1 -4.10652 1.2123 -1.31074 
145 1 0.2 0.8 0 -1.50019 -0.445685 -0.823535 
148 1 0.2 0.9 0.1 0.947465 2.76521 -1.31681 
166 1 0 0.8 0.2 2.51242 4.48681 -1.50345 
167 1 0.1 0.9 0.2 -0.764376 -1.78292 0.710166 
170 1 0.2 0.8 0.2 -2.87935 2.94722 2.67817 
146 1 0.3 0.9 0 1.94458 1.07456 -0.712979 
147 1 0.3 0.8 0.1 0.371742 -0.840975 -2.67793 
149 1 0.4 0.8 0 2.6404 1.2511 1.10247 
150 1 0.4 0.9 0.1 1.28017 1.83433 -0.46008 
171 1 0.3 0.9 0.2 2.05451 5.8296 2.11067 
174 1 0.4 0.8 0.2 0.959685 -4.00295 -0.323665 
152 1 0 0.5 0.3 2.15761 0.494743 0.377163 
154 1 0.2 0.5 0.3 1.70969 -1.6253 -1.4667 
158 1 0.1 0.6 0.3 1.08397 -4.16003 -0.660003 
159 1 0 0.7 0.3 -1.98491 -0.324812 1.50209 
163 1 0.2 0.7 0.3 3.33803 -0.370407 -5.94415 
176 1 0.1 0.5 0.4 -0.110123 -3.39057 2.05051 
178 1 0 0.6 0.4 1.48142 -0.0546104 0.0824 
179 1 0.1 0.7 0.4 1.51137 -1.94706 -1.57826 
180 1 0.2 0.6 0.4 -0.761653 -0.821269 -1.78587 
155 1 0.4 0.5 0.3 -1.00826 -1.26475 3.78312 
162 1 0.3 0.6 0.3 -2.66843 0.389256 1.0947 
165 1 0.4 0.7 0.3 -1.76169 -6.55669 0.978405 
177 1 0.3 0.5 0.4 0.406713 -2.59295 3.22379 
181 1 0.3 0.7 0.4 -2.8572 3.2005 2.81064 
182 1 0.4 0.6 0.4 -1.90628 0.377673 -1.72209 
168 1 0.1 0.8 0.3 -2.10664 0.451439 -0.0986207 
169 1 0 0.9 0.3 -1.66683 -2.26599 -2.79143 
173 1 0.2 0.9 0.3 -4.06485 2.19943 -0.192338 
183 1 0 0.8 0.4 0.0807345 4.91729 -3.20029 
184 1 0.1 0.9 0.4 -4.6737 0.690561 -2.10961 
185 1 0.2 0.8 0.4 0.88569 -3.54501 0.150295 
172 1 0.3 0.8 0.3 -0.352312 -0.974398 0.592324 
175 1 0.4 0.9 0.3 -3.08712 -0.557858 2.29013 
186 1 0.3 0.9 0.4 4.35606 0.755934 1.57482 
187 1 0.4 0.8 0.4 1.66195 2.14065 1.364 
188 1 0 0.5 0.5 -1.10938 -0.582679 -3.45578 
189 1 0.2 0.5 0.5 2.34104 -2.89511 0.492048 
191 1 0.1 0.6 0.5 3.15041 -4.48558 -2.03344 
192 1 0 0.7 0.5 -1.26487 -0.254129 -0.578648 
194 1 0.2 0.7 0.5 -4.25302 -5.35413 -1.64276 
201 1 0.1 0.5 0.6 4.24059 -1.77077 2.91414 
202 1 0 0.5 0.7 -0.00873933 0.864762 5.05563 
204 1 0.2 0.5 0.7 -1.31499 1.02032 -1.11706 
206 1 0 0.6 0.6 -0.337195 -1.35242 2.57263 
207 1 0.1 0.7 0.6 3.65414 0.928705 3.8875 
208 1 0.1 0.6 0.7 0.857236 0.539138 2.6923 
209 1 0 0.7 0.7 -0.0143164 1.24072 -1.86653 
210 1 0.2 0.6 0.6 -3.25639 -0.811888 2.42917 
213 1 0.2 0.7 0.7 -5.01903 -3.06425 0.869212 
190 1 0.4 0.5 0.5 4.23043 -0.724792 1.33472 
193 1 0.3 0.6 0.5 2.37379 -6.20089 3.86861 
195 1 0.4 0.7 0.5 -0.904307 0.525634 -1.01288 
203 1 0.3 0.5 0.6 1.60706 1.3983 2.85521 
205 1 0.4 0.5 0.7 -1.23406 -0.846306 -2.10796 
211 1 0.3 0.7 0.6 -0.736067 -1.07718 -0.318574 
212 1 0.3 0.6 0.7 -0.764237 1.94886 -1.03301 
214 1 0.4 0.6 0.6 1.17777 2.76492 -3.21406 
215 1 0.4 0.7 0.7 1.78443 -3.24888 2.12004 
196 1 0.1 0.8 0.5 -3.2787 -3.35611 3.64426 
197 1 0 0.9 0.5 1.65171 -3.49074 -1.2228 
199 1 0.2 0.9 0.5 -2.96339 -1.49326 0.854153 
216 1 0 0.8 0.6 -0.946848 -2.13688 -4.87428 
217 1 0.1 0.9 0.6 -0.537573 -3.91143 -0.420632 
218 1 0.1 0.8 0.7 0.820607 1.79998 2.41623 
219 1 0 0.9 0.7 -2.71684 1.39125 1.47115 
220 1 0.2 0.8 0.6 -2.12823 -2.70901 1.50219 
223 1 0.2 0.9 0.7 -2.07282 -1.07268 -3.04941 
198 1 0.3 0.8 0.5 0.690097 -0.169716 1.58036 
200 1 0.4 0.9 0.5 0.6704 -0.0848439 0.193079 
221 1 0.3 0.9 0.6 -3.38934 -0.624204 1.21649 
222 1 0.3 0.8 0.7 0.425933 0.250483 -1.71761 
224 1 0.4 0.8 0.6 3.69409 -0.379002 2.18281 
225 1 0.4 0.9 0.7 1.55339 -0.260984 1.94946 
226 1 0.1 0.5 0.8 0.138102 0.864723 -0.110407 
227 1 0 0.5 0.9 -0.493938 -2.29856 -0.550582 
229 1 0.2 0.5 0.9 -0.55439 -2.47502 2.45505 
231 1 0 0.6 0.8 1.41071 0.409609 5.07608 
232 1 0.1 0.7 0.8 -2.92971 -1.71504 1.76127 
233 1 0.1 0.6 0.9 -3.46425 3.44213 -4.6225 
234 1 0 0.7 0.9 0.168266 0.453471 -3.64021 
235 1 0.2 0.6 0.8 2.62164 2.27272 1.24993 
238 1 0.2 0.7 0.9 1.56985 1.90869 -3.94724 
228 1 0.3 0.5 0.8 5.0104 -4.21631 1.68411 
230 1 0.4 0.5 0.9 2.36093 -8.00246 -1.96354 
236 1 0.3 0.7 0.8 -3.77388 -2.47307 -6.74294 
237 1 0.3 0.6 0.9 -1.62262 -0.56119 -0.56775 
239 1 0.4 0.6 0.8 -4.98889 -6.52336 0.484585 
240 1 0.4 0.7 0.9 -2.67438 -2.14641 0.178705 
241 1 0 0.8 0.8 -0.692152 -1.24173 -0.337565 
242 1 0.1 0.9 0.8 -3.5294 -0.0496716 -1.27642 
243 1 0.1 0.8 0.9 0.12646 0.868609 2.6716 
244 1 0 0.9 0.9 4.17757 0.652496 -0.274955 
245 1 0.2 0.8 0.8 -1.70351 -0.85882 -2.03152 
248 1 0.2 0.9 0.9 0.0912885 1.21265 -0.78391 
246 1 0.3 0.9 0.8 -5.29699 1.60777 -0.472633 
247 1 0.3 0.8 0.9 2.44416 1.5191 -3.65306 
249 1 0.4 0.8 0.8 -2.25234 1.16714 -0.415002 
250 1 0.4 0.9 0.9 -1.02089 -1.46945 -1.46059 
251 1 0.5 0.1 0 -2.14723 0.881407 2.10663 
252 1 0.5 0 0.1 -0.463028 0.833246 3.05005 
253 1 0.6 0 0 3.79078 -2.4643 -2.91869 
254 1 0.7 0.1 0 3.16936 2.45026 0.768834 
255 1 0.7 0 0.1 2.91869 0.09628 -6.75811 
256 1 0.6 0.1 0.1 -3.23422 -1.89076 -1.03338 
262 1 0.5 0.2 0.1 -0.322798 -3.15244 1.6122 
263 1 0.6 0.2 0 1.4136 0.935592 -2.52928 
265 1 0.7 0.2 0.1 1.35143 -5.76985 -4.42871 
276 1 0.5 0.1 0.2 -0.160708 -2.00509 -2.70084 
278 1 0.6 0 0.2 -1.64995 1.23921 -0.34162 
279 1 0.7 0.1 0.2 -1.89553 3.4918 1.73979 
288 1 0.6 0.2 0.2 1.27119 -0.0283998 -2.92406 
257 1 0.8 0 0 -0.634337 -1.13658 3.8277 
258 1 0.9 0.1 0 0.81148 -0.730981 -1.59591 
259 1 0.9 0 0.1 1.84591 -1.79915 0.911067 
260 1 0.8 0.1 0.1 0.880924 1.70745 4.31972 
267 1 0.8 0.2 0 -1.07135 4.06682 -2.4949 
269 1 0.9 0.2 0.1 3.00592 2.13591 -1.57749 
282 1 0.8 0 0.2 -1.93117 0.912235 -1.08505 
283 1 0.9 0.1 0.2 1.97177 3.16428 0.971733 
292 1 0.8 0.2 0.2 0.515918 -0.792546 -3.16552 
261 1 0.5 0.3 0 3.33193 -0.86514 -3.56385 
264 1 0.7 0.3 0 5.32587 3.39858 -1.89925 
266 1 0.6 0.3 0.1 -5.77825 -0.303852 2.63183 
271 1 0.5 0.4 0.1 2.03489 0.66222 -1.25039 
272 1 0.6 0.4 0 -2.4353 -1.96477 -3.29408 
273 1 0.7 0.4 0.1 -1.55595 3.72752 2.87678 
286 1 0.5 0.3 0.2 -2.08559 -1.32691 -1.36509 
289 1 0.7 0.3 0.2 -3.56036 1.5408 1.87201 
297 1 0.6 0.4 0.2 -1.55995 1.32352 -0.0738343 
268 1 0.9 0.3 0 1.98741 -0.613753 -0.306546 
270 1 0.8 0.3 0.1 0.492204 -4.66143 -3.73123 
274 1 0.8 0.4 0 -0.0796818 -5.57941 4.86203 
275 1 0.9 0.4 0.1 1.85556 2.53513 2.03485 
293 1 0.9 0.3 0.2 -4.26975 -3.1048 -0.674024 
299 1 0.8 0.4 0.2 -1.14339 0.396365 0.896979 
277 1 0.5 0 0.3 4.02415 1.61473 1.9144 
280 1 0.7 0 0.3 -2.31485 1.49802 3.39608 
281 1 0.6 0.1 0.3 -2.5402 -0.090025 -4.21637 
287 1 0.5 0.2 0.3 2.57727 3.23971 4.48645 
290 1 0.7 0.2 0.3 -2.02582 1.19699 2.25389 
301 1 0.5 0.1 0.4 -4.05527 -2.55815 0.978936 
302 1 0.6 0 0.4 -0.506172 0.665203 3.22862 
303 1 0.7 0.1 0.4 -0.215445 4.86094 1.36056 
307 1 0.6 0.2 0.4 -0.144282 -1.14517 1.33286 
284 1 0.9 0 0.3 -1.63283 -2.77825 -0.984295 
285 1 0.8 0.1 0.3 1.68308 1.12082 4.31647 
294 1 0.9 0.2 0.3 -2.79479 -1.79377 3.28928 
304 1 0.8 0 0.4 -2.83947 0.279601 0.686119 
305 1 0.9 0.1 0.4 -2.24132 4.49334 2.85676 
309 1 0.8 0.2 0.4 -1.46264 0.106631 3.23964 
291 1 0.6 0.3 0.3 0.599581 -1.75286 2.89159 
296 1 0.5 0.4 0.3 3.3793 -0.667423 -0.285819 
298 1 0.7 0.4 0.3 -1.8867 2.41405 -0.292769 
306 1 0.5 0.3 0.4 0.819086 -0.831779 -0.94571 
308 1 0.7 0.3 0.4 3.07395 0.0288508 -2.98725 
311 1 0.6 0.4 0.4 -0.853082 -0.474728 -0.217599 
295 1 0.8 0.3 0.3 -2.63772 2.57148 3.95749 
300 1 0.9 0.4 0.3 -0.941934 0.415405 2.43645 
310 1 0.9 0.3 0.4 5.74581 -1.57914 -3.65981 
312 1 0.8 0.4 0.4 -1.83751 0.369255 -2.86258 
313 1 0.5 0 0.5 0.00418516 -0.513913 -0.681359 
314 1 0.7 0 0.5 3.10776 2.44149 2.24064 
315 1 0.6 0.1 0.5 -1.30121 -0.458739 1.65849 
318 1 0.5 0.2 0.5 -1.91355 1.05042 -0.176228 
319 1 0.7 0.2 0.5 2.33051 0.471168 -2.39295 
326 1 0.5 0.1 0.6 0.200462 0.848356 -0.981567 
327 1 0.5 0 0.7 1.53443 -0.0957774 -2.41172 
328 1 0.6 0 0.6 -0.56193 1.15686 0.768746 
329 1 0.7 0.1 0.6 1.43756 1.214 0.997413 
330 1 0.7 0 0.7 2.66516 -2.91612 -3.45802 
331 1 0.6 0.1 0.7 -0.102915 4.82058 -2.54228 
337 1 0.5 0.2 0.7 -3.97332 -1.40541 -1.97212 
338 1 0.6 0.2 0.6 2.59325 2.90101 0.258195 
340 1 0.7 0.2 0.7 2.49655 0.212149 -2.61522 
316 1 0.9 0 0.5 -1.21309 4.10974 3.3237 
317 1 0.8 0.1 0.5 -1.12498 2.47545 -0.738742 
321 1 0.9 0.2 0.5 -2.017 0.52053 3.4745 
332 1 0.8 0 0.6 -2.95742 1.2781 2.04151 
333 1 0.9 0.1 0.6 -0.197971 -0.777244 5.62287 
334 1 0.9 0 0.7 -0.639095 -4.35883 -0.846256 
335 1 0.8 0.1 0.7 1.26575 -2.29468 -1.37757 
342 1 0.8 0.2 0.6 -0.818173 0.386023 -1.47786 
344 1 0.9 0.2 0.7 -5.68223 -6.83512 -0.0754823 
320 1 0.6 0.3 0.5 1.53052 -2.28608 2.1719 
323 1 0.5 0.4 0.5 -1.86156 -1.36869 -1.28099 
324 1 0.7 0.4 0.5 -2.21321 0.421422 1.03856 
336 1 0.5 0.3 0.6 -0.595315 -3.04992 -1.13602 
339 1 0.7 0.3 0.6 -1.93468 -1.75856 -0.280391 
341 1 0.6 0.3 0.7 0.790894 3.51132 2.14778 
346 1 0.5 0.4 0.7 -1.07635 2.59996 -0.164019 
347 1 0.6 0.4 0.6 -1.19714 0.12233 -1.54469 
348 1 0.7 0.4 0.7 2.3713 -2.10656 -1.42727 
322 1 0.8 0.3 0.5 2.85848 0.85208 2.12873 
325 1 0.9 0.4 0.5 1.77723 0.797117 0.0776456 
343 1 0.9 0.3 0.6 1.78635 -3.05684 -1.81576 
345 1 0.8 0.3 0.7 4.30987 -2.09886 -1.12779 
349 1 0.8 0.4 0.6 0.965264 3.36549 -0.955547 
350 1 0.9 0.4 0.7 -2.35651 3.05672 1.13205 
351 1 0.5 0.1 0.8 -0.497993 -1.18834 -4.23324 
352 1 0.5 0 0.9 -2.04383 1.09147 -5.84309 
353 1 0.6 0 0.8 -0.870572 0.151449 -0.609361 
354 1 0.7 0.1 0.8 2.59299 2.53921 -1.51336 
355 1 0.7 0 0.9 -1.34846 -4.27552 -3.91355 
356 1 0.6 0.1 0.9 -0.352536 -0.778676 -4.80062 
362 1 0.5 0.2 0.9 3.40727 -1.71349 1.07724 
363 1 0.6 0.2 0.8 -1.6415 -0.0585364 1.23942 
365 1 0.7 0.2 0.9 -5.54439 2.88711 -0.827679 
357 1 0.8 0 0.8 0.15966 2.12912 1.34141 
358 1 0.9 0.1 0.8 -0.753669 -3.2426 1.90293 
359 1 0.9 0 0.9 0.0378647 0.0798204 -1.15042 
360 1 0.8 0.1 0.9 -0.176494 -2.68003 -3.42221 
367 1 0.8 0.2 0.8 2.35589 -5.49411 0.411689 
369 1 0.9 0.2 0.9 -1.88643 2.98533 -0.323382 
361 1 0.5 0.3 0.8 -0.177127 0.557926 0.109058 
364 1 0.7 0.3 0.8 -1.43146 0.913175 -2.74638 
366 1 0.6 0.3 0.9 4.81908 2.04766 3.93236 
371 1 0.5 0.4 0.9 0.0675998 -3.58338 -1.37248 
372 1 0.6 0.4 0.8 -2.56813 2.15608 0.766955 
373 1 0.7 0.4 0.9 -1.07818 1.00048 -1.27502 
368 1 0.9 0.3 0.8 -1.6831 -1.06908 -0.18031 
370 1 0.8 0.3 0.9 0.849905 -0.0540074 -0.163726 
374 1 0.8 0.4 0.8 1.34171 -3.40362 0.459826 
375 1 0.9 0.4 0.9 0.0735739 -1.13373 -1.52348 
376 1 0.5 0.5 0 -1.26722 4.58876 6.22525 
377 1 0.7 0.5 0 0.659796 0.185172 -0.0763492 
378 1 0.6 0.5 0.1 -0.979252 -0.155937 -0.490601 
381 1 0.5 0.7 0 -4.63236 2.37693 -0.193137 
382 1 0.5 0.6 0.1 -3.93443 4.19429 -1.54983 
383 1 0.6 0.6 0 0.876277 0.199367 0.14054 
384 1 0.7 0.7 0 -0.0815358 -2.14443 2.04297 
385 1 0.7 0.6 0.1 0.216302 -1.02061 -1.42826 
386 1 0.6 0.7 0.1 -3.84167 1.14476 -6.29603 
401 1 0.5 0.5 0.2 2.48157 -0.256883 4.89501 
402 1 0.7 0.5 0.2 -2.21449 -0.88912 3.57549 
406 1 0.5 0.7 0.2 0.0551517 -0.68468 1.12174 
408 1 0.6 0.6 0.2 1.28716 -0.143214 0.138331 
409 1 0.7 0.7 0.2 0.87419 -0.640162 -0.701695 
379 1 0.9 0.5 0 1.01058 0.182881 -1.91991 
380 1 0.8 0.5 0.1 2.0551 -1.37097 -3.85905 
387 1 0.8 0.6 0 -4.34144 -1.71122 -5.15114 
388 1 0.9 0.7 0 1.63408 -1.31941 -1.07252 
389 1 0.9 0.6 0.1 -2.17223 2.35639 1.56899 
390 1 0.8 0.7 0.1 1.05488 0.135423 -1.22188 
404 1 0.9 0.5 0.2 1.36971 -2.77949 -2.2847 
412 1 0.8 0.6 0.2 0.945992 1.9845 -0.828188 
413 1 0.9 0.7 0.2 1.48799 -0.220024 3.94763 
391 1 0.5 0.9 0 -3.26965 2.50732 -0.664513 
392 1 0.5 0.8 0.1 0.849161 -1.78085 6.05373 
393 1 0.6 0.8 0 -1.77641 0.713177 0.160638 
394 1 0.7 0.9 0 -1.11839 4.40254 4.2335 
395 1 0.7 0.8 0.1 4.92982 2.01779 1.41373 
396 1 0.6 0.9 0.1 -0.661906 1.99268 -0.554076 
416 1 0.5 0.9 0.2 4.35398 0.680837 4.13226 
418 1 0.6 0.8 0.2 -0.549376 -4.54681 -1.17587 
419 1 0.7 0.9 0.2 -1.14496 -2.12586 -0.190143 
397 1 0.8 0.8 0 -0.293629 0.721852 -2.78805 
398 1 0.9 0.9 0 -1.11561 -2.53904 -2.70925 
399 1 0.9 0.8 0.1 -3.29978 1.54301 2.77231 
400 1 0.8 0.9 0.1 -0.747415 1.72715 -1.49148 
422 1 0.8 0.8 0.2 -2.37384 0.297121 -0.775451 
423 1 0.9 0.9 0.2 2.75755 2.00561 0.276342 
403 1 0.6 0.5 0.3 1.01691 2.11267 -1.71727 
407 1 0.5 0.6 0.3 -1.91946 -4.62951 0.249564 
410 1 0.7 0.6 0.3 3.90945 2.5116 2.05989 
411 1 0.6 0.7 0.3 -2.82406 3.55035 1.16541 
426 1 0.5 0.5 0.4 -1.13968 4.85113 -0.0178397 
427 1 0.7 0.5 0.4 -2.19577 -1.05621 0.235596 
429 1 0.5 0.7 0.4 -4.44774 -2.11073 -2.35542 
430 1 0.6 0.6 0.4 -0.327871 2.78931 -0.710631 
431 1 0.7 0.7 0.4 1.72919 3.88676 -2.8618 
405 1 0.8 0.5 0.3 -0.591295 3.30538 -0.479063 
414 1 0.9 0.6 0.3 3.55149 -0.668435 4.02099 
415 1 0.8 0.7 0.3 -1.52744 -0.125564 3.16426 
428 1 0.9 0.5 0.4 0.910659 5.87824 -5.88952 
432 1 0.8 0.6 0.4 2.27332 2.8658 -1.69703 
433 1 0.9 0.7 0.4 -0.394766 1.75153 3.37576 
417 1 0.5 0.8 0.3 -0.196854 -3.38644 -4.44238 
420 1 0.7 0.8 0.3 1.95042 -0.092478 3.67077 
421 1 0.6 0.9 0.3 0.512171 2.15396 2.7284 
434 1 0.5 0.9 0.4 1.68884 2.74707 -0.191847 
435 1 0.6 0.8 0.4 0.844774 2.82322 6.43202 
436 1 0.7 0.9 0.4 -3.24315 3.20643 1.09588 
424 1 0.9 0.8 0.3 -1.37956 -1.34502 2.84772 
425 1 0.8 0.9 0.3 2.64456 -1.63253 0.94474 
437 1 0.8 0.8 0.4 0.709412 0.86634 0.803885 
438 1 0.9 0.9 0.4 1.61044 2.48322 -3.21391 
439 1 0.6 0.5 0.5 -2.66048 0.93624 0.231674 
441 1 0.5 0.6 0.5 0.914894 2.37035 1.03263 
442 1 0.7 0.6 0.5 0.341838 2.7466 3.00204 
443 1 0.6 0.7 0.5 -0.63346 2.87706 0.340675 
451 1 0.5 0.5 0.6 3.69783 0.641516 2.25161 
452 1 0.7 0.5 0.6 -3.53095 1.79419 -4.12269 
453 1 0.6 0.5 0.7 -1.8659 3.57661 0.355066 
456 1 0.5 0.7 0.6 -0.418253 5.13033 0.877965 
457 1 0.5 0.6 0.7 1.22372 0.700608 -2.98288 
458 1 0.6 0.6 0.6 1.21369 -1.60632 2.35602 
459 1 0.7 0.7 0.6 5.41118 -0.371466 -4.84488 
460 1 0.7 0.6 0.7 1.62328 0.181172 4.95758 
461 1 0.6 0.7 0.7 0.0810512 -3.49657 -0.00557616 
440 1 0.8 0.5 0.5 -1.00791 0.607588 0.827241 
444 1 0.9 0.6 0.5 -2.86879 2.93583 2.59926 
445 1 0.8 0.7 0.5 0.734645 -0.669486 -4.34026 
454 1 0.9 0.5 0.6 1.45478 4.6078 -0.551767 
455 1 0.8 0.5 0.7 2.13354 1.4352 -0.546945 
462 1 0.8 0.6 0.6 -3.02938 -0.715338 -2.65428 
463 1 0.9 0.7 0.6 -0.580731 -2.03274 -3.22612 
464 1 0.9 0.6 0.7 1.1239 -0.803366 2.57569 
465 1 0.8 0.7 0.7 -1.92544 -0.21746 -3.24018 
446 1 0.5 0.8 0.5 2.85013 -1.20739 -1.97409 
447 1 0.7 0.8 0.5 -0.985669 0.264454 -1.90901 
448 1 0.6 0.9 0.5 0.767486 -0.450984 -1.04483 
466 1 0.5 0.9 0.6 3.62885 1.38105 -0.29903 
467 1 0.5 0.8 0.7 -2.21873 -2.69331 1.70486 
468 1 0.6 0.8 0.6 2.9631 1.03146 -4.55681 
469 1 0.7 0.9 0.6 1.84971 2.06726 -0.546746 
470 1 0.7 0.8 0.7 -0.0139897 0.0837197 -5.08703 
471 1 0.6 0.9 0.7 -0.813682 -0.755905 -0.0163759 
449 1 0.9 0.8 0.5 1.61908 -1.4638 4.38748 
450 1 0.8 0.9 0.5 -0.827962 -3.32069 3.8109 
472 1 0.8 0.8 0.6 -3.6494 4.05107 -0.199232 
473 1 0.9 0.9 0.6 -6.29413 2.50343 -1.66051 
474 1 0.9 0.8 0.7 -2.93135 2.79305 -0.214702 
475 1 0.8 0.9 0.7 1.75602 2.77478 -1.39026 
476 1 0.5 0.5 0.8 3.32292 1.51619 0.391257 
477 1 0.7 0.5 0.8 -3.34541 -1.68041 -3.55349 
478 1 0.6 0.5 0.9 1.26887 6.5605 -3.38033 
481 1 0.5 0.7 0.8 0.391615 1.46644 -2.01511 
482 1 0.5 0.6 0.9 -1.46838 -2.0014 -0.470366 
483 1 0.6 0.6 0.8 0.384627 -4.53451 -2.73588 
484 1 0.7 0.7 0.8 2.02566 1.00629 4.48875 
485 1 0.7 0.6 0.9 -3.10916 -3.74666 1.84449 
486 1 0.6 0.7 0.9 -2.42284 -2.82607 -1.97615 
479 1 0.9 0.5 0.8 -2.2929 -2.45078 0.475477 
480 1 0.8 0.5 0.9 -1.91297 3.4908 -4.10381 
487 1 0.8 0.6 0.8 -1.79839 1.50192 -0.494193 
488 1 0.9 0.7 0.8 3.85706 -6.27929 -4.5393 
489 1 0.9 0.6 0.9 0.512736 2.59354 -0.790745 
490 1 0.8 0.7 0.9 -0.407847 -4.32117 -0.180758 
491 1 0.5 0.9 0.8 -2.55715 -1.81783 -2.01023 
492 1 0.5 0.8 0.9 -2.13314 1.33829 -1.45452 
493 1 0.6 0.8 0.8 -0.989832 -5.16801 4.97209 
494 1 0.7 0.9 0.8 -2.79161 0.518608 1.61369 
495 1 0.7 0.8 0.9 4.18284 0.208631 -0.420823 
496 1 0.6 0.9 0.9 0.444659 -1.04951 -0.194096 
497 1 0.8 0.8 0.8 0.600917 6.33448 -2.25295 
498 1 0.9 0.9 0.8 -0.549429 0.332031 3.21921 
499 1 0.9 0.8 0.9 0.628992 2.14457 2.23033 
500 1 0.8 0.9 0.9 -0.611496 -3.08941 3.15264 
