ITEM: TIMESTEP
10000
ITEM: NUMBER OF ATOMS
500
ITEM: BOX BOUNDS pp pp pp
0 18.144
0 18.144
0 18.144
ITEM: ATOMS id type xs ys zs vx vy vz 
1 1 0.00221809 0.004002 0.00187295 -1.40529 0.663807 -2.9685 
2 1 0.0985639 0.103791 -0.00230385 1.17627 -3.62789 0.257745 
3 1 0.10807 0.00296935 0.0904623 1.19534 0.309788 -1.40467 
4 1 0.00078561 0.106887 0.0978239 0.209234 2.5098 -1.26858 
5 1 0.202157 0.00197477 0.00288351 3.49275 -0.704882 0.963025 
8 1 0.202086 0.0994162 0.096884 -0.705378 2.02328 0.718934 
11 1 -0.0014509 0.200224 -0.00074107 2.71225 0.432281 -1.37007 
13 1 0.10111 0.201339 0.101357 1.98848 2.46107 -1.86892 
15 1 0.203675 0.200041 0.00306767 -1.79612 -0.338525 0.64244 
26 1 0.00425699 -0.000364412 0.192951 3.20276 -0.618376 -0.330262 
27 1 0.104688 0.0968875 0.195873 -0.469545 1.20068 -3.48667 
30 1 0.199966 -0.00777444 0.190899 0.397792 0.679451 -0.593533 
36 1 0.00110155 0.202234 0.200638 0.393078 0.60498 1.41927 
40 1 0.196984 0.197063 0.202514 1.86656 0.552833 -2.0578 
6 1 0.298863 0.0963968 -0.00243862 1.18705 -5.17883 1.23698 
7 1 0.306218 0.00755661 0.096753 -1.34487 -0.0379442 -1.61525 
9 1 0.396758 -0.00129908 -0.00479611 -2.63385 -1.10643 0.828714 
10 1 0.397297 0.0995032 0.0985229 -2.73931 -0.0419433 -3.34622 
17 1 0.299159 0.188567 0.0955251 -1.74489 1.42178 3.68369 
19 1 0.400099 0.194299 0.000454889 -4.48134 2.4813 0.74057 
31 1 0.294351 0.0986102 0.201914 0.761122 1.0442 1.22812 
34 1 0.399418 0.00444091 0.20369 -2.90871 -2.25731 0.714417 
44 1 0.394513 0.196977 0.213628 0.289401 1.05594 0.641737 
12 1 0.101215 0.297223 -0.000121145 -1.1078 1.23796 1.70218 
14 1 2.19483e-05 0.302106 0.102611 0.240617 0.964866 0.060992 
18 1 0.201825 0.295179 0.102834 2.14068 -1.78324 2.36505 
21 1 0.00265539 0.398943 0.00234686 -3.18574 1.27088 -0.26539 
22 1 0.100033 0.399848 0.0995304 1.93731 -3.03228 2.57542 
23 1 0.198108 0.400568 -0.00310197 2.02002 -1.24174 -0.186626 
37 1 0.104236 0.30592 0.196914 -3.21438 1.61083 -1.51974 
46 1 -0.00663273 0.396405 0.197872 0.123935 0.596241 -2.3993 
48 1 0.200855 0.404706 0.200092 0.843897 1.01788 -4.12232 
16 1 0.301949 0.304529 -0.00234754 0.440089 -1.46199 -2.85585 
20 1 0.385836 0.295282 0.103898 0.910287 1.57372 -0.679983 
24 1 0.299193 0.400637 0.0986055 -2.72987 3.37352 1.0406 
25 1 0.398852 0.406232 0.00764996 1.57135 3.16859 0.487929 
41 1 0.294354 0.30049 0.200832 1.94821 -1.79483 3.27661 
50 1 0.402939 0.398274 0.207339 1.54511 -3.30314 1.55261 
28 1 0.107022 -0.000804496 0.291664 -4.85393 -0.319974 2.28917 
29 1 0.00663055 0.0990677 0.293473 1.28537 0.602077 -1.20118 
33 1 0.199053 0.1002 0.308842 -0.0437541 -1.12292 -1.50835 
38 1 0.0988807 0.200056 0.299859 0.051015 1.12154 1.1077 
51 1 0.00769378 -0.00828867 0.396653 -0.0234292 -2.38111 0.187424 
52 1 0.100473 0.0975014 0.396002 -0.340065 -3.3219 1.27868 
53 1 0.205222 -0.00131227 0.394828 0.26501 1.87726 -3.86598 
56 1 -0.00353617 0.201897 0.395052 -1.27853 -2.50158 -4.25098 
58 1 0.195919 0.200334 0.396532 0.350301 1.02056 -1.93411 
32 1 0.300158 0.00657308 0.294997 -1.7108 3.39412 -4.14645 
35 1 0.407735 0.0999189 0.301323 0.221191 -0.568148 2.752 
42 1 0.300818 0.200562 0.307895 -1.052 -0.0613837 0.930993 
54 1 0.306939 0.100853 0.400386 0.882527 -2.91057 -0.291651 
55 1 0.399132 -0.00349968 0.396239 -1.7858 -3.0935 -1.15684 
60 1 0.410222 0.198418 0.405876 -2.89643 -0.359929 1.23234 
39 1 -0.0140439 0.299985 0.300233 -5.12408 3.13685 -1.21611 
43 1 0.196073 0.295524 0.297798 -1.59007 -0.53018 1.67728 
47 1 0.0890489 0.402108 0.294328 2.87937 3.61939 -2.36141 
57 1 0.0987651 0.303501 0.393745 -1.32403 -1.32045 3.01402 
61 1 -0.00514742 0.398129 0.399789 -0.093203 4.38952 -2.50823 
62 1 0.199307 0.402516 0.39524 -0.02542 -2.71123 -0.113012 
45 1 0.405231 0.299201 0.304919 1.60675 -1.01439 0.435772 
49 1 0.296863 0.403251 0.297922 -0.874595 -0.310796 1.18136 
59 1 0.304114 0.304212 0.401128 2.15284 4.1393 2.2342 
63 1 0.395342 0.407811 0.396869 -1.78188 -0.164737 -2.39503 
64 1 0.106888 -0.000634757 0.4895 1.01688 -2.73831 2.78718 
65 1 0.00517213 0.0961971 0.485414 -1.76446 -2.23856 1.80629 
67 1 0.203537 0.102087 0.498104 1.63894 -0.155783 -0.991279 
69 1 0.0965614 0.2013 0.495951 3.16902 2.33228 0.781879 
76 1 0.000414564 -0.00611838 0.591711 -0.873958 1.47805 3.37841 
77 1 0.10077 0.10166 0.593728 -2.0774 2.61928 -2.66158 
78 1 0.0973739 0.000977496 0.691116 0.180079 2.69769 0.908692 
79 1 -0.00295978 0.093011 0.696773 1.49288 -5.38626 1.97819 
80 1 0.201758 0.0108099 0.60478 -4.64285 0.824824 -0.695878 
83 1 0.197636 0.0993437 0.700646 -1.34346 2.43711 -0.164954 
86 1 -0.00471203 0.190652 0.598914 5.36728 4.23579 -0.306839 
88 1 0.0976829 0.199349 0.70025 5.29807 -3.91115 1.1218 
90 1 0.198144 0.202874 0.601113 0.770696 -0.687476 0.270566 
66 1 0.298107 0.0103855 0.50042 1.64012 0.738902 -3.45705 
68 1 0.399343 0.0955739 0.506097 0.569093 2.54138 0.125406 
71 1 0.302159 0.197246 0.501235 2.04143 1.17924 -3.28129 
81 1 0.297417 0.103899 0.603596 3.84435 -4.36659 -2.67985 
82 1 0.296693 0.0018323 0.705999 -2.32476 -1.19912 2.35207 
84 1 0.399414 0.00660684 0.60481 -1.42365 1.8907 1.46026 
85 1 0.396207 0.100585 0.699697 -0.153456 2.83119 -1.19496 
92 1 0.293259 0.202471 0.699188 -0.814262 -0.570424 -0.0479624 
94 1 0.395973 0.201711 0.602007 0.416561 -1.15907 -1.70629 
70 1 0.0037601 0.302635 0.502453 -1.17733 0.262716 -0.226875 
72 1 0.204471 0.295439 0.499635 0.32074 1.0714 1.12697 
74 1 0.0962065 0.402159 0.496591 0.381264 -0.210223 0.556114 
87 1 0.099807 0.293696 0.602061 1.26459 4.60809 0.845448 
89 1 -0.00771116 0.300386 0.695345 0.684194 0.556299 2.5175 
93 1 0.195448 0.299889 0.699823 4.00832 -0.0107131 2.15457 
96 1 -0.00320689 0.403056 0.599615 -1.23583 0.127871 0.576687 
97 1 0.0941757 0.392812 0.698874 -0.81126 -1.68552 -0.195925 
98 1 0.191326 0.397513 0.599617 3.19229 -2.21023 0.388541 
73 1 0.401403 0.306658 0.493018 0.186604 2.0665 -0.928138 
75 1 0.29605 0.407892 0.501997 -1.11299 0.25031 -0.406359 
91 1 0.294689 0.303659 0.598114 -3.69686 -1.88503 0.569238 
95 1 0.393058 0.298739 0.706 -1.59097 0.138118 2.29952 
99 1 0.300659 0.402154 0.698945 1.48689 -0.55079 1.85985 
100 1 0.393279 0.40828 0.600895 0.135833 -0.218081 2.50309 
101 1 0.00228135 0.00250025 0.797589 1.81814 0.793385 -0.0874634 
102 1 0.0968002 0.102033 0.795345 0.108363 -3.25399 0.137599 
103 1 0.103486 -0.00223753 0.899162 -0.166023 1.72602 1.46388 
104 1 0.00186658 0.103567 0.898831 1.03855 -0.533378 0.984107 
105 1 0.196077 0.000965629 0.797666 -1.61609 0.969741 -1.17279 
108 1 0.200619 0.106465 0.898269 2.93071 1.22576 0.315726 
111 1 -0.00606465 0.199955 0.803438 -0.693218 0.128103 -1.21634 
113 1 0.0962008 0.196034 0.898682 -1.11292 1.32363 -3.22749 
115 1 0.199613 0.204014 0.80205 0.184908 -3.71619 1.85454 
106 1 0.306202 0.100325 0.799752 -0.484806 0.655498 -5.71283 
107 1 0.297619 0.00255111 0.900335 -1.48272 -2.02471 -1.79307 
109 1 0.398162 -0.00508953 0.794309 -1.93514 0.0447034 2.01453 
110 1 0.394985 0.102949 0.9054 -1.39994 -0.787438 0.942215 
117 1 0.299121 0.207486 0.899739 1.65401 2.17464 -2.89503 
119 1 0.404667 0.204056 0.803995 -1.51109 -1.37771 0.63814 
112 1 0.0888663 0.304175 0.799221 -2.62385 0.0304596 -1.70373 
114 1 -0.00566841 0.296895 0.897967 0.894261 -1.34552 -3.15964 
118 1 0.191263 0.300094 0.899584 -0.276482 -2.5759 3.0106 
121 1 -0.00114864 0.400609 0.801182 -2.0763 3.24847 -0.92422 
122 1 0.101286 0.408116 0.900156 6.36815 -0.653196 -1.85078 
123 1 0.194542 0.404997 0.80303 -2.17954 3.69377 1.02162 
116 1 0.293647 0.302593 0.803998 -1.18619 2.17687 0.23304 
120 1 0.406538 0.307366 0.901722 -0.95233 0.662556 2.40139 
124 1 0.297812 0.404574 0.903099 -0.133139 0.679127 0.447656 
125 1 0.40078 0.399997 0.804516 -2.72841 -4.30007 1.95838 
126 1 0.102538 0.502918 -0.00209994 2.68566 0.877902 0.444482 
127 1 -0.00616563 0.4989 0.100304 -4.49667 3.46715 -1.84011 
129 1 0.199972 0.49496 0.0922578 2.99316 1.85803 -0.415151 
131 1 0.00519156 0.599064 0.00582252 0.505059 -4.37615 0.10796 
132 1 0.0975303 0.699645 0.00222825 3.34031 -2.90242 5.04299 
133 1 0.0934238 0.596618 0.105307 6.06459 0.584294 -1.45005 
134 1 -0.00552733 0.698486 0.104497 -2.11582 -2.26402 -0.428913 
135 1 0.199232 0.600894 0.00116747 2.02158 0.0385187 -2.53121 
138 1 0.198981 0.699942 0.0975481 -0.696249 2.72876 -0.984953 
151 1 0.0963155 0.500185 0.20001 0.284059 1.61455 0.945029 
156 1 0.00163063 0.598013 0.201179 -2.15609 4.03365 2.04463 
157 1 0.103679 0.706578 0.201388 3.46258 -1.2786 1.52195 
160 1 0.197041 0.600029 0.197289 1.12472 -0.0552113 -0.424291 
128 1 0.303465 0.499115 -0.00512742 -1.71756 0.676751 1.97293 
130 1 0.40435 0.506239 0.109912 0.85493 -3.20685 -0.711384 
136 1 0.304993 0.698903 0.00131544 0.82933 3.44296 -3.72053 
137 1 0.299095 0.597971 0.101524 1.05387 -3.24872 0.3956 
139 1 0.399672 0.601787 0.00169343 1.09817 -1.52324 4.13943 
140 1 0.396112 0.696927 0.101609 0.42732 1.38552 -1.50955 
153 1 0.300523 0.5015 0.198794 1.0244 -1.52166 1.02141 
161 1 0.296919 0.701776 0.194183 1.5284 1.26216 -2.68084 
164 1 0.399442 0.610452 0.1971 0.491752 1.59721 -1.20248 
141 1 -0.00187418 0.800277 0.00627186 -0.841786 2.1421 5.93654 
142 1 0.100955 0.902092 -0.00385086 -2.19294 -1.20075 -0.495913 
143 1 0.103628 0.794865 0.090236 -1.1779 -1.5783 -0.424724 
144 1 0.000410969 0.897929 0.100225 -2.26754 -2.50932 2.49958 
145 1 0.20645 0.79817 0.000860501 -2.94315 0.0397969 0.809878 
148 1 0.209082 0.895744 0.0927658 -1.68186 0.704635 -1.40246 
166 1 0.00121816 0.797646 0.193459 -3.63569 -1.97123 -2.9129 
167 1 0.10875 0.892223 0.201468 1.30287 1.02478 0.803503 
170 1 0.199989 0.798319 0.201831 1.26749 4.14736 -0.658365 
146 1 0.299549 0.898293 -0.00211649 -2.23931 -0.624202 -3.90172 
147 1 0.300805 0.790986 0.106353 0.726216 1.66404 2.76058 
149 1 0.397402 0.799271 0.0036554 -0.921055 2.69838 2.00837 
150 1 0.396943 0.899337 0.102621 -1.5885 1.1558 -3.83473 
171 1 0.303391 0.89749 0.205759 0.270366 0.669394 -2.56407 
174 1 0.402708 0.796566 0.201219 0.535592 0.715533 4.43017 
152 1 -0.00498787 0.494457 0.291215 -1.14027 0.0779946 0.0659595 
154 1 0.189956 0.499584 0.300617 1.01287 -2.76839 -2.54817 
158 1 0.104486 0.604261 0.291191 2.48678 0.263199 1.18178 
159 1 -0.00502588 0.697187 0.308634 2.37863 1.02018 0.262143 
163 1 0.198579 0.699469 0.303758 -0.500536 0.467343 -2.30068 
176 1 0.091992 0.500227 0.393266 3.14672 -1.43767 -2.26501 
178 1 -0.00177201 0.592404 0.400363 -0.318421 -3.56358 -0.733447 
179 1 0.0962015 0.694038 0.399845 -2.87288 0.398443 -3.58777 
180 1 0.197609 0.598284 0.399162 -1.53452 -0.414718 2.73788 
155 1 0.390645 0.507997 0.300698 -0.957933 -1.28628 -3.47957 
162 1 0.294257 0.605133 0.29733 -0.0480454 -4.30832 -1.72061 
165 1 0.399457 0.705123 0.302857 -0.0644756 -0.619378 1.23371 
177 1 0.295055 0.498853 0.398611 1.98345 -2.13046 -5.64791 
181 1 0.30285 0.69995 0.403996 -4.98546 4.56318 -1.08348 
182 1 0.393914 0.601355 0.400987 -2.22958 1.10126 -0.370153 
168 1 0.103531 0.804001 0.309622 2.14527 -2.36963 -0.762087 
169 1 0.00289365 0.899398 0.299465 2.87313 0.134823 1.16773 
173 1 0.207225 0.902132 0.297926 -1.14982 4.46658 -4.99089 
183 1 -0.00439977 0.801073 0.399392 1.4952 -1.21669 -0.395287 
184 1 0.110719 0.895021 0.40126 -2.1622 -2.4713 -0.311494 
185 1 0.208981 0.799639 0.39603 -2.34874 1.75075 0.672234 
172 1 0.306965 0.796071 0.298489 -1.86212 -2.55139 -1.30715 
175 1 0.406636 0.899766 0.300878 -2.19043 1.49697 0.972793 
186 1 0.308489 0.903686 0.395313 2.9641 -0.417506 -0.291014 
187 1 0.402193 0.799596 0.397565 -0.844378 0.127068 -0.532943 
188 1 -0.00343286 0.500086 0.504684 -3.27804 0.157422 0.856372 
189 1 0.193312 0.500107 0.498627 0.145109 4.27731 0.651579 
191 1 0.0980351 0.599772 0.501832 -4.43322 0.941921 0.50196 
192 1 -0.000626806 0.693344 0.496914 -0.6328 0.573865 -1.03658 
194 1 0.202537 0.693733 0.49282 2.57828 -3.70682 -0.969915 
201 1 0.0932539 0.501009 0.597525 3.40373 1.74109 1.13006 
202 1 -0.00181594 0.50626 0.703039 -0.800394 -2.60119 0.362506 
204 1 0.197902 0.499679 0.69509 -0.135072 4.38216 0.206671 
206 1 -0.000709872 0.607432 0.598477 -1.65883 -0.603204 -4.16584 
207 1 0.104774 0.703833 0.601229 1.78051 0.0719297 -1.64037 
208 1 0.101601 0.59959 0.694211 -2.25222 -0.0428162 0.126218 
209 1 0.00505778 0.698725 0.70101 0.151094 0.768214 2.16215 
210 1 0.204515 0.604389 0.603453 -2.84004 1.46593 -0.996716 
213 1 0.198037 0.703908 0.707561 1.57365 1.23474 2.45314 
190 1 0.396971 0.498217 0.496238 -3.68882 -0.102149 -0.674494 
193 1 0.298483 0.598223 0.498469 -1.30625 -0.463471 0.0776895 
195 1 0.41041 0.703623 0.502729 -2.42469 0.185292 -0.982289 
203 1 0.302288 0.500843 0.601282 2.66818 1.36196 -0.883978 
205 1 0.400547 0.500979 0.70714 2.11449 -5.13159 -3.64904 
211 1 0.29967 0.702139 0.602346 0.579125 -0.117672 2.29525 
212 1 0.299183 0.594831 0.699127 0.776634 1.42306 1.74846 
214 1 0.395276 0.602158 0.60526 0.835226 -1.28824 1.54256 
215 1 0.399567 0.696503 0.702162 -0.81797 -1.03046 0.34313 
196 1 0.104066 0.792644 0.501294 0.454895 -2.62609 2.87182 
197 1 0.00933397 0.896425 0.497823 0.637608 -1.20583 3.96781 
199 1 0.208257 0.900812 0.497348 1.29845 -1.27184 -0.746803 
216 1 0.00397666 0.799465 0.598451 -1.69492 2.10472 -1.26227 
217 1 0.113677 0.901562 0.592921 -1.50531 -1.00532 0.899723 
218 1 0.104184 0.803983 0.703674 0.526912 -3.09921 0.181866 
219 1 0.00384706 0.903041 0.698707 0.353131 -0.657127 -2.58723 
220 1 0.20589 0.800808 0.598598 -0.811993 0.115 -1.17615 
223 1 0.202523 0.900501 0.698564 1.00905 0.689374 0.998667 
198 1 0.301155 0.796517 0.499297 0.374632 3.628 0.305078 
200 1 0.400259 0.907278 0.498775 -2.1158 1.85277 -0.998096 
221 1 0.300559 0.903717 0.602419 -2.65412 -1.74393 1.61764 
222 1 0.296913 0.799907 0.702162 -1.43057 -2.09477 -2.21294 
224 1 0.394534 0.79812 0.602511 -0.289763 5.64042 0.884506 
225 1 0.400631 0.897369 0.694397 -1.17721 1.57636 2.0799 
226 1 0.0977003 0.502485 0.794057 3.43248 -2.12748 -3.56134 
227 1 0.00384515 0.503928 0.895399 0.789741 1.53078 1.67976 
229 1 0.203267 0.511101 0.897159 -2.98974 -1.63839 -1.56441 
231 1 -0.00897982 0.607472 0.797533 -3.47822 -1.86842 -1.71691 
232 1 0.0996504 0.704835 0.800022 -0.611584 3.61143 1.67691 
233 1 0.0897891 0.607654 0.902311 -0.0424007 0.460984 0.0313908 
234 1 -0.00823307 0.709091 0.90661 4.74509 0.439174 2.21747 
235 1 0.18821 0.604771 0.799721 1.40012 1.62195 -0.411791 
238 1 0.203021 0.689056 0.902669 -1.35326 -0.507402 4.3463 
228 1 0.293362 0.505094 0.798779 2.72077 -3.18363 2.62905 
230 1 0.398173 0.498796 0.89701 -1.06806 -1.23862 -0.784823 
236 1 0.299617 0.690945 0.802386 -0.703561 0.221354 0.344956 
237 1 0.308498 0.597903 0.89923 -1.68046 0.364585 0.902637 
239 1 0.403655 0.599771 0.798219 2.37059 5.26878 4.79575 
240 1 0.39942 0.700115 0.905363 2.13991 -1.87665 -1.44364 
241 1 0.00266041 0.801083 0.791403 2.60019 -3.97184 0.893393 
242 1 0.1063 0.902407 0.796574 -1.56474 0.828563 -1.28606 
243 1 0.0969817 0.796553 0.91072 -0.269314 1.14394 -4.62559 
244 1 0.00110409 0.900032 0.898146 0.524723 1.23699 -2.14281 
245 1 0.196955 0.798354 0.811051 1.05606 3.11151 0.174092 
248 1 0.205993 0.89992 0.898794 1.03447 0.929513 1.67756 
246 1 0.306657 0.893452 0.801138 0.464447 -2.53533 5.47306 
247 1 0.300171 0.793527 0.902477 -2.61342 -3.61866 -1.43727 
249 1 0.408466 0.796418 0.793365 0.238669 -0.321505 -0.663187 
250 1 0.393063 0.903428 0.907523 1.27858 0.0178668 0.694784 
251 1 0.4974 0.0988896 0.00547118 1.76402 1.96345 0.690634 
252 1 0.492926 -0.00405809 0.105692 4.03225 -2.09071 -0.69741 
253 1 0.602291 -0.00654176 0.000178887 -2.77903 0.232118 -2.77691 
254 1 0.705567 0.102943 0.00500095 -2.90814 1.19378 -2.34565 
255 1 0.706739 -0.00573363 0.0965522 1.14815 1.39558 3.28936 
256 1 0.599623 0.0945397 0.0981107 -4.57507 -2.42273 -3.29032 
262 1 0.490464 0.205054 0.103796 1.14315 2.30144 0.202954 
263 1 0.598616 0.197723 0.0134365 -0.70499 4.44886 1.57114 
265 1 0.702832 0.198001 0.102303 -0.158336 0.847782 -0.606148 
276 1 0.495055 0.105314 0.193488 -3.5431 -0.0779953 0.355386 
278 1 0.613732 -0.00908038 0.198115 3.42056 1.36025 1.11013 
279 1 0.703653 0.0953889 0.199861 -1.03018 0.424958 -3.4767 
288 1 0.602967 0.197838 0.197289 -1.92851 -1.34451 1.09708 
257 1 0.807487 -0.00211621 0.00423858 -4.49795 -1.56316 -2.34862 
258 1 0.899805 0.0961855 0.00542016 1.4084 1.41716 -0.75658 
259 1 0.896994 0.00249817 0.100626 -1.47506 -0.264594 -0.351739 
260 1 0.80055 0.105216 0.0966541 -2.13219 -1.86983 -1.81376 
267 1 0.804889 0.201006 -0.00177266 3.0864 -0.482122 -3.98006 
269 1 0.902734 0.200055 0.100032 0.935828 1.73423 0.230138 
282 1 0.803392 -0.00690309 0.204626 -0.487656 0.144577 -1.71587 
283 1 0.904395 0.101525 0.197203 -2.47569 -1.7437 1.91587 
292 1 0.798055 0.201175 0.202136 -0.452535 1.69601 -0.144382 
261 1 0.497733 0.297215 0.00731934 -0.702262 -0.274301 2.78494 
264 1 0.688763 0.300887 -0.00459032 1.43914 -0.447833 1.77325 
266 1 0.597026 0.296246 0.0984009 3.34951 0.0646319 -2.50874 
271 1 0.496785 0.395889 0.0993761 -0.22515 0.766245 2.89882 
272 1 0.591497 0.408381 -0.00173007 -0.896438 -1.25813 -2.06828 
273 1 0.696443 0.401119 0.0960945 -0.128022 0.557539 -2.46175 
286 1 0.499593 0.294611 0.202062 2.25526 -0.132425 -0.0545489 
289 1 0.700951 0.300383 0.205012 1.06782 -0.086084 2.49386 
297 1 0.597979 0.397881 0.197672 -2.17496 2.24908 -0.641079 
268 1 0.899087 0.299593 -0.00273068 -5.14617 -1.83502 -1.95881 
270 1 0.792512 0.302792 0.0996519 1.23457 0.691063 -2.51885 
274 1 0.798844 0.400553 -0.000829032 -1.88238 -2.4338 3.7571 
275 1 0.90102 0.393491 0.0981 -1.04495 2.87734 0.309991 
293 1 0.896481 0.296751 0.19665 -0.796463 1.1748 -0.209646 
299 1 0.802171 0.39827 0.198008 -0.68243 4.29366 0.644239 
277 1 0.503956 0.00599899 0.293904 -0.786291 0.084522 -1.15836 
280 1 0.708341 -0.00256207 0.302293 -0.642594 1.08039 -3.18236 
281 1 0.601623 0.0982069 0.299826 4.07167 -0.324538 0.797226 
287 1 0.502776 0.195514 0.302761 1.75824 -1.79769 -0.265843 
290 1 0.700847 0.201419 0.298487 -0.946877 1.77735 1.65023 
301 1 0.502093 0.0936409 0.403434 -1.44361 -0.596361 -1.27694 
302 1 0.601002 0.00189937 0.398071 -0.143052 0.407996 -1.47423 
303 1 0.7001 0.0994634 0.401552 -2.08868 -3.56025 0.0381907 
307 1 0.601389 0.198463 0.400034 -1.6214 0.939855 -0.787558 
284 1 0.908468 0.000304596 0.2945 -0.650052 -1.91761 0.930263 
285 1 0.80505 0.101733 0.297111 2.22248 -1.95109 2.18241 
294 1 0.908138 0.194646 0.294149 0.258675 1.07925 0.98909 
304 1 0.805847 0.00526242 0.400756 -2.91846 0.35606 -1.63347 
305 1 0.89909 0.0994692 0.394527 -0.505308 0.633209 0.109603 
309 1 0.795153 0.200292 0.394762 -2.58379 -2.70481 1.48798 
291 1 0.595481 0.29643 0.297498 1.26597 -1.58793 -0.579517 
296 1 0.497657 0.402125 0.299949 -0.635381 -4.05421 0.606846 
298 1 0.695668 0.40135 0.298364 -1.91559 -0.0366031 4.1352 
306 1 0.506952 0.307355 0.397368 -1.94408 -1.13812 -1.10499 
308 1 0.699869 0.302357 0.397046 2.38731 -1.3447 -1.37293 
311 1 0.597811 0.40293 0.397725 -2.89301 -0.741949 0.338354 
295 1 0.80544 0.301874 0.303164 3.286 3.60532 1.92153 
300 1 0.899494 0.397028 0.296489 -1.81365 -0.790204 0.124389 
310 1 0.903325 0.30373 0.404456 -1.93785 -1.86909 0.0936304 
312 1 0.798499 0.400719 0.39364 0.37098 -1.50691 -2.4541 
313 1 0.50122 -0.00593373 0.502121 -0.417682 0.407522 2.00602 
314 1 0.701215 -0.000984292 0.497078 0.251129 -1.77783 3.13657 
315 1 0.603951 0.096069 0.505777 -0.847002 0.68 -2.61137 
318 1 0.504567 0.205305 0.503825 0.530932 -4.97969 0.794334 
319 1 0.697964 0.193736 0.501421 -0.502837 -1.55464 -4.44707 
326 1 0.49887 0.100028 0.601836 4.49806 -0.666887 -1.50761 
327 1 0.496435 -0.0010887 0.703912 -0.242274 2.21138 2.74737 
328 1 0.592539 0.00273917 0.604866 1.42588 -2.33961 5.4722 
329 1 0.704861 0.0941785 0.603706 2.64493 0.764534 1.58584 
330 1 0.692416 -0.000949036 0.701914 2.59798 3.13754 0.659672 
331 1 0.597372 0.102736 0.71102 1.06891 -0.56917 -1.30451 
337 1 0.499253 0.209444 0.699451 -2.0452 0.220693 -2.40253 
338 1 0.602689 0.193777 0.604605 -0.0531332 -1.05631 -3.08714 
340 1 0.700388 0.200264 0.706522 4.28229 2.02996 1.80091 
316 1 0.901614 -0.00807111 0.499337 -4.82102 -0.664559 3.12881 
317 1 0.797424 0.0997614 0.498222 0.355744 -0.0221184 -2.37867 
321 1 0.896911 0.203482 0.494109 2.32689 -2.52813 3.813 
332 1 0.805142 -0.00449835 0.600675 -0.497474 3.73268 4.62513 
333 1 0.899335 0.0959035 0.592238 -1.08091 1.98253 1.65636 
334 1 0.897966 -0.00352784 0.69906 3.28556 -0.167982 -1.6815 
335 1 0.802374 0.0974648 0.706798 -3.70106 -0.189528 1.32663 
342 1 0.803001 0.201379 0.604379 -0.351682 1.78814 -1.30818 
344 1 0.895354 0.195097 0.703597 2.39723 2.46726 1.27695 
320 1 0.597142 0.306602 0.497292 -4.26059 2.01015 -2.47947 
323 1 0.498232 0.403002 0.496645 1.36907 1.73442 -0.633128 
324 1 0.704717 0.401386 0.510596 0.123791 1.14297 -4.12429 
336 1 0.496149 0.301239 0.596054 -2.75251 -0.346727 -1.45703 
339 1 0.70463 0.293997 0.596897 2.20709 2.53712 -2.91904 
341 1 0.599971 0.297625 0.703689 0.284226 -3.57463 2.30609 
346 1 0.497007 0.408305 0.699029 4.35728 -3.80742 0.548307 
347 1 0.60368 0.397949 0.600476 -1.75313 -0.969732 -0.463376 
348 1 0.705463 0.400943 0.702459 0.874832 0.0768091 1.04901 
322 1 0.79802 0.299561 0.496508 -0.821909 -0.412221 -0.625874 
325 1 0.896752 0.403516 0.501528 2.69603 -2.58771 1.51123 
343 1 0.903748 0.298848 0.600196 1.85703 0.0802393 -1.42418 
345 1 0.799467 0.300082 0.704083 -1.60834 4.16865 0.916183 
349 1 0.806682 0.394257 0.605209 2.26591 2.34731 1.13046 
350 1 0.899258 0.399265 0.698273 2.83915 4.645 -0.199693 
351 1 0.496023 0.0977274 0.808239 1.76008 -0.759201 1.06788 
352 1 0.501819 -4.43402e-05 0.89847 -1.91689 2.62398 1.74636 
353 1 0.599515 -0.000254703 0.799908 -1.34092 -2.87188 -0.0116621 
354 1 0.69385 0.0994835 0.801565 2.74838 3.26946 -1.24401 
355 1 0.698375 -0.0025218 0.899732 0.378086 5.2031 -2.16564 
356 1 0.601047 0.102805 0.906441 0.430021 0.828202 -2.28237 
362 1 0.498422 0.201039 0.902079 -1.54289 -1.28376 1.57665 
363 1 0.598517 0.201604 0.801356 2.92401 0.495262 2.15974 
365 1 0.692372 0.195788 0.905063 -2.93215 -1.54182 0.904082 
357 1 0.799957 -0.000183749 0.801579 -1.24721 -3.01348 -2.56313 
358 1 0.900379 0.0956127 0.802187 0.524717 -0.919479 2.39432 
359 1 0.906601 0.0034909 0.900362 -2.05277 -0.937608 3.29028 
360 1 0.801085 0.0878732 0.908589 0.357592 3.3711 -1.73797 
367 1 0.801197 0.196473 0.804201 -3.71965 -0.0791431 -1.87786 
369 1 0.894738 0.202836 0.898978 2.47401 -1.38947 0.943672 
361 1 0.503257 0.30734 0.798156 1.34896 -0.541852 -0.0452918 
364 1 0.698011 0.296582 0.804595 1.54891 0.6333 5.48532 
366 1 0.595616 0.291484 0.907874 0.742133 -1.89878 -0.295503 
371 1 0.500477 0.40044 0.899657 -0.0274269 0.214977 -0.142074 
372 1 0.605191 0.396348 0.79916 3.22915 -4.22045 -0.230707 
373 1 0.700693 0.404014 0.891311 3.58579 1.29556 2.87734 
368 1 0.901347 0.295637 0.801419 0.0532323 -0.794803 0.824567 
370 1 0.794756 0.300761 0.904982 0.51276 0.387923 1.26109 
374 1 0.808294 0.400357 0.804594 3.13316 1.07815 -0.536075 
375 1 0.896447 0.399261 0.899043 -0.604329 -0.189702 -1.49868 
376 1 0.497176 0.499861 0.0014993 -0.621785 -0.135145 -1.92998 
377 1 0.699025 0.500972 -0.00512665 2.39384 -2.21242 -0.232723 
378 1 0.602028 0.49986 0.103336 2.27638 2.0962 -4.12535 
381 1 0.502983 0.696056 0.00681141 3.83171 -1.57687 1.42587 
382 1 0.505165 0.596923 0.102706 -2.52014 -2.62558 -3.08609 
383 1 0.601521 0.59487 0.00468422 -0.855075 -3.32539 1.58129 
384 1 0.697868 0.700414 0.00089353 -1.38265 1.42221 -2.11914 
385 1 0.692859 0.596128 0.104832 -2.03579 -1.72628 -0.91053 
386 1 0.599792 0.701739 0.103936 0.51826 -0.0539499 2.08059 
401 1 0.501968 0.49981 0.201221 5.07072 -1.12133 3.24437 
402 1 0.705715 0.499576 0.2013 4.9134 -2.42868 0.117642 
406 1 0.50093 0.700517 0.201896 1.62006 1.2237 2.23126 
408 1 0.602419 0.599114 0.207067 -1.00531 3.88262 1.07738 
409 1 0.702272 0.703219 0.1973 -1.47845 -2.20581 -0.179598 
379 1 0.901745 0.499277 0.00166592 -1.02143 3.66075 0.655464 
380 1 0.800051 0.485365 0.0963755 0.0351718 -1.77616 -3.97956 
387 1 0.790314 0.601629 -0.00347829 2.34683 -1.35955 0.155307 
388 1 0.900096 0.702501 0.00765034 1.0097 -4.61213 2.59167 
389 1 0.8961 0.597424 0.095317 0.841114 -1.8405 0.374473 
390 1 0.797017 0.698488 0.101741 1.91471 -1.18262 -5.34146 
404 1 0.896536 0.497696 0.195437 -3.97934 0.583547 -1.21425 
412 1 0.801233 0.604284 0.19128 -1.91842 2.47465 -3.48269 
413 1 0.906676 0.698143 0.209883 1.11401 -2.71477 -1.28142 
391 1 0.5087 0.901315 0.00553174 0.297884 0.780077 0.509696 
392 1 0.501787 0.798979 0.105529 -0.179906 -1.37971 -1.88269 
393 1 0.595295 0.794444 -0.00676356 -0.0604273 -2.93525 -1.63509 
394 1 0.703005 0.901989 -0.000971367 -0.195017 -2.67929 -1.35707 
395 1 0.696461 0.802327 0.0966862 0.23593 3.07665 -1.14668 
396 1 0.601178 0.901843 0.0991639 -0.276154 0.952307 -1.19766 
416 1 0.504227 0.902489 0.202763 1.85794 -1.81264 -0.679317 
418 1 0.605985 0.804648 0.197736 1.02817 2.04317 2.84669 
419 1 0.704526 0.897286 0.199692 1.30571 1.96559 -1.42226 
397 1 0.797533 0.801557 0.00107523 2.17509 -0.380036 -0.0120806 
398 1 0.90663 0.899001 -0.00111784 1.8864 -3.69174 -0.268932 
399 1 0.89573 0.797007 0.103106 -0.246912 3.82823 1.68544 
400 1 0.799184 0.89729 0.10048 0.199719 2.65351 0.661965 
422 1 0.795391 0.801845 0.19658 -2.80802 -0.808799 -3.18776 
423 1 0.904037 0.891591 0.200861 -0.885275 1.12241 -0.708994 
403 1 0.598004 0.500023 0.292804 -0.351396 -4.24647 -3.68046 
407 1 0.497765 0.600346 0.295548 -2.71644 3.01538 -1.33207 
410 1 0.695946 0.602256 0.296623 -2.20041 -2.70513 -0.94949 
411 1 0.596508 0.70131 0.298823 1.00916 -1.89945 1.0557 
426 1 0.493723 0.501328 0.396226 1.03687 -2.84201 2.61459 
427 1 0.699538 0.498055 0.396541 -3.1913 2.37286 0.263371 
429 1 0.494846 0.694044 0.404139 3.15208 -2.00439 0.421832 
430 1 0.590334 0.599649 0.395419 0.0609304 -0.172061 -1.76245 
431 1 0.704067 0.700637 0.401906 0.0380025 -0.421797 0.230637 
405 1 0.800783 0.497756 0.300405 -0.182823 0.907041 -1.48994 
414 1 0.892721 0.596881 0.298251 1.20537 -0.972635 0.358427 
415 1 0.800251 0.698671 0.299824 -0.2093 1.37734 3.02578 
428 1 0.898847 0.499093 0.389356 -1.46051 -1.69222 1.15855 
432 1 0.801963 0.595011 0.400301 2.36022 -3.64549 -0.196762 
433 1 0.898387 0.689989 0.402503 5.125 -1.83836 -2.28578 
417 1 0.509203 0.798359 0.300872 0.949992 2.03331 2.13094 
420 1 0.702495 0.795303 0.303375 -2.40924 -0.50071 1.17592 
421 1 0.605427 0.898708 0.296059 -0.737035 -3.14305 0.486235 
434 1 0.503118 0.905381 0.392713 -0.0164711 0.0371753 -1.39599 
435 1 0.592372 0.796564 0.398344 1.65376 1.92006 1.26722 
436 1 0.696071 0.896842 0.39891 0.0348412 -0.96333 0.77865 
424 1 0.899729 0.802359 0.29915 -1.04122 0.403467 0.841053 
425 1 0.803854 0.895093 0.302146 1.71443 -2.69341 0.704349 
437 1 0.807747 0.797121 0.397432 0.199713 -1.40756 2.20079 
438 1 0.901781 0.899305 0.399297 4.03323 0.507561 0.188233 
439 1 0.6033 0.504513 0.500633 -2.32664 0.541563 0.918455 
441 1 0.498299 0.593781 0.498854 -1.53926 1.90234 2.40138 
442 1 0.702927 0.598061 0.499559 -1.17561 0.754532 2.7016 
443 1 0.599819 0.699564 0.491582 -0.465306 0.136992 -2.38072 
451 1 0.494873 0.503466 0.599558 -3.79045 -1.69558 -1.82153 
452 1 0.699301 0.502211 0.604157 4.89994 1.82924 2.67425 
453 1 0.601155 0.49325 0.698666 -1.82917 -0.674543 -0.452094 
456 1 0.495243 0.698345 0.601465 -0.286724 1.84821 -0.0234377 
457 1 0.504841 0.602105 0.699459 1.28409 0.887787 -0.0854354 
458 1 0.605347 0.598255 0.601429 -0.13793 4.3503 0.153546 
459 1 0.703258 0.701268 0.594763 -2.44155 -1.30156 -0.496395 
460 1 0.705893 0.598104 0.701525 -0.528456 1.02408 0.127456 
461 1 0.608048 0.703384 0.69526 -1.2766 -0.638208 -3.12017 
440 1 0.798664 0.498991 0.49633 0.614706 3.06908 -0.898565 
444 1 0.8972 0.597571 0.505375 0.17901 -0.218297 1.28754 
445 1 0.802838 0.704673 0.501193 -0.192121 -0.30157 1.40399 
454 1 0.900373 0.49834 0.604715 2.33184 -1.67327 2.8803 
455 1 0.799254 0.502352 0.700608 -1.17341 1.05698 1.68857 
462 1 0.799548 0.604496 0.592653 -2.10273 0.167925 -1.28334 
463 1 0.902078 0.707289 0.595811 2.51051 -3.0938 0.238373 
464 1 0.889984 0.606917 0.696333 1.89 3.40251 -1.51651 
465 1 0.795857 0.703589 0.70017 2.75177 0.904283 -1.74819 
446 1 0.498463 0.801423 0.501389 -0.207308 -1.12076 1.74942 
447 1 0.697266 0.801133 0.502613 2.9763 -0.97801 -1.01069 
448 1 0.597224 0.902584 0.502226 1.37013 -2.04468 0.633016 
466 1 0.497346 0.900861 0.59996 2.45202 1.92395 -3.5406 
467 1 0.503127 0.800268 0.697724 -0.431609 2.49019 0.145051 
468 1 0.605088 0.800166 0.600873 -0.385478 0.189109 1.97959 
469 1 0.693357 0.904441 0.604905 0.302784 -1.40185 -1.7726 
470 1 0.70241 0.798188 0.703108 -2.3221 0.353452 2.05017 
471 1 0.597802 0.901796 0.706092 -1.80045 1.0709 0.627022 
449 1 0.898737 0.807594 0.503621 -5.48773 -3.28422 0.222844 
450 1 0.798857 0.904509 0.496917 -0.886165 5.15938 0.507297 
472 1 0.790998 0.810812 0.596984 -1.76113 -3.26067 0.233091 
473 1 0.902297 0.899601 0.602068 -2.60017 -0.414446 1.53847 
474 1 0.901744 0.799769 0.698832 1.08365 -1.80436 0.47001 
475 1 0.799208 0.906149 0.700095 -0.0193471 0.530054 -0.462065 
476 1 0.498086 0.502932 0.803403 2.29844 1.23838 -1.03362 
477 1 0.706818 0.509188 0.800431 0.966592 6.34548 0.928768 
478 1 0.602884 0.500126 0.889247 2.55499 1.40164 1.18393 
481 1 0.505984 0.696217 0.799385 -0.0692587 -1.08383 0.572945 
482 1 0.502247 0.599975 0.900573 -3.90683 -2.83285 -2.3604 
483 1 0.600335 0.593388 0.794461 -0.0621065 -2.11344 2.58381 
484 1 0.694804 0.690919 0.798887 0.578188 0.78315 -0.238742 
485 1 0.696821 0.596968 0.896324 -4.39671 -1.81104 0.616224 
486 1 0.600622 0.704886 0.89682 2.86294 1.35093 0.235356 
479 1 0.898355 0.507137 0.799071 -7.45469 -2.24789 -0.295917 
480 1 0.804954 0.50271 0.906286 5.00873 2.87465 1.18769 
487 1 0.805581 0.605582 0.804757 1.92694 2.06315 -1.96264 
488 1 0.903164 0.706908 0.800608 1.97404 2.21512 0.877212 
489 1 0.901775 0.597846 0.906012 0.484558 -0.882939 0.872454 
490 1 0.799856 0.700148 0.902557 1.12788 -1.37577 1.96111 
491 1 0.50122 0.895467 0.798698 1.30162 -0.0672912 0.46116 