ITEM: TIMESTEP
3
ITEM: NUMBER OF ATOMS
4
ITEM: BOX BOUNDS pp pp pp
0 3.6288
0 3.6288
0 3.6288
ITEM: ATOMS id type xs ys zs vx vy vz 
1 1 0.999164 0.997478 0.999709 -1.00935 -3.0339 -0.345787 
2 1 0.497814 0.503466 0.998252 -2.63354 4.172 -2.10223 
3 1 0.501376 0.999793 0.501974 1.66052 -0.242871 2.37513 
4 1 0.00164582 0.499263 0.500065 1.98237 -0.895224 0.0728872 
