ITEM: TIMESTEP
10000
ITEM: NUMBER OF ATOMS
500
ITEM: BOX BOUNDS pp pp pp
0 18.144
0 18.144
0 18.144
ITEM: ATOMS id type xs ys zs vx vy vz 
1 1 0.00364941 -0.00157003 -0.00438926 0.183353 2.16936 -5.03089 
2 1 0.0958328 0.105532 -0.00159732 2.83353 -2.53964 -0.718818 
3 1 0.0993759 0.00242339 0.0922277 -0.666009 2.37082 -5.05525 
4 1 0.000904151 0.104066 0.0877278 -2.38761 0.555869 1.04514 
5 1 0.205886 -0.00170878 0.00501578 -2.00597 -0.487951 -4.63308 
8 1 0.197457 0.10138 0.0921332 0.38123 2.23891 0.30587 
11 1 -0.0101662 0.208526 -0.00666169 -0.306911 0.890798 -1.64342 
13 1 0.10217 0.205218 0.0925728 -4.50731 -2.65506 5.02758 
15 1 0.196447 0.202746 -0.00272351 -1.87713 -1.36605 -2.76383 
26 1 0.00511594 -0.000449028 0.197322 1.79752 3.65145 0.571825 
27 1 0.100131 0.0977602 0.188562 -6.80325 0.0953686 2.15299 
30 1 0.194939 0.0068904 0.207348 0.412349 -0.149811 1.75635 
36 1 0.00816482 0.189551 0.198874 4.51442 -0.916983 -0.65844 
40 1 0.193871 0.191947 0.198085 -0.00702428 -3.84282 1.47677 
6 1 0.306572 0.102315 -0.000738209 -0.446463 -0.335874 -2.28241 
7 1 0.303351 0.0125667 0.110296 -4.50207 -0.507991 -1.68553 
9 1 0.39701 -0.000783717 0.00602291 -3.76705 -4.63691 1.05823 
10 1 0.398595 0.100289 0.101844 -5.68434 -0.68136 1.48144 
17 1 0.292237 0.194589 0.100477 4.27824 -2.03133 0.621165 
19 1 0.405926 0.199671 -0.00288109 -2.22792 -1.45446 0.159858 
31 1 0.292924 0.0985311 0.208368 0.235654 2.07346 1.48732 
34 1 0.398506 0.00347422 0.196998 -2.38329 -2.16123 2.06892 
44 1 0.397469 0.201031 0.196833 -3.45337 0.54152 1.28023 
12 1 0.0949638 0.300821 0.00225835 1.4252 -3.04488 -0.223912 
14 1 -0.00369462 0.30523 0.0959367 0.857955 3.6624 -2.84689 
18 1 0.200167 0.292606 0.102657 0.248017 5.76595 0.271766 
21 1 -0.00736275 0.400265 -0.000184516 -1.62487 2.24072 -2.41644 
22 1 0.105446 0.405532 0.094605 2.00481 0.7229 2.03169 
23 1 0.196658 0.391816 -0.000544246 0.271069 1.67542 -1.79924 
37 1 0.0948229 0.302881 0.197558 0.220216 3.89567 0.875698 
46 1 0.00197511 0.408191 0.197476 2.94643 3.8665 1.16476 
48 1 0.200792 0.398171 0.198602 -1.83634 -0.983133 3.18198 
16 1 0.298385 0.291482 0.00434085 -0.141433 -2.13996 -1.10799 
20 1 0.392429 0.297809 0.0976871 0.0856559 -1.39524 -2.16508 
24 1 0.289337 0.39525 0.0941746 1.51539 -1.00478 1.19226 
25 1 0.386521 0.391499 0.00146326 -0.565688 0.399777 0.0670614 
41 1 0.30742 0.300868 0.205758 0.206961 -0.347392 3.81091 
50 1 0.392375 0.402651 0.194666 -0.753919 2.82183 0.0473778 
28 1 0.106994 0.00466082 0.305703 -3.38325 3.36498 -0.162927 
29 1 -0.00120616 0.0961454 0.299844 0.780416 1.17581 0.630326 
33 1 0.199624 0.100285 0.312779 -0.547545 0.946622 -0.34066 
38 1 0.0981415 0.204176 0.308556 -2.97969 1.10735 0.190895 
51 1 -0.00194231 0.00396369 0.397482 2.39484 -0.586058 -0.588446 
52 1 0.0921137 0.104279 0.400696 0.661809 4.12712 1.6931 
53 1 0.202693 0.00824752 0.406603 -0.912082 -0.758716 1.94215 
56 1 -0.00817278 0.198007 0.39472 -2.97481 -2.62778 3.95391 
58 1 0.200625 0.199398 0.403651 -1.3863 0.699674 -0.9553 
32 1 0.294645 -0.00754969 0.309367 0.961418 -0.356899 1.63964 
35 1 0.403402 0.102705 0.303467 -1.88561 -1.08653 1.24739 
42 1 0.294742 0.198328 0.302375 0.118583 -0.943447 -1.86606 
54 1 0.296997 0.105977 0.413474 3.90651 1.45094 -3.24173 
55 1 0.396793 0.00944847 0.397358 2.68054 0.83517 -2.53001 
60 1 0.40366 0.201834 0.401895 5.28835 3.31004 2.86755 
39 1 -0.00861087 0.309883 0.305348 -1.1829 -3.11965 -1.57048 
43 1 0.2039 0.298567 0.299377 -0.614559 -3.34838 2.95646 
47 1 0.105076 0.393422 0.303514 2.23394 4.30717 1.57703 
57 1 0.103513 0.301804 0.408356 -0.20384 -2.35823 1.41213 
61 1 0.0107734 0.400006 0.399087 1.72779 -1.68941 -6.85731 
62 1 0.207382 0.398341 0.396069 -4.69115 -0.436112 2.48378 
45 1 0.397271 0.296638 0.307291 1.0534 5.87593 0.234311 
49 1 0.297804 0.398108 0.299011 3.70134 -4.34402 4.46768 
59 1 0.301172 0.303386 0.401649 -0.0039729 -0.338895 -1.70227 
63 1 0.400453 0.401208 0.398547 3.1155 0.625025 -0.656159 
64 1 0.0993013 0.0074173 0.504791 -0.0733663 -2.64348 -2.09203 
65 1 -0.00338989 0.0976372 0.498442 -1.32538 -4.01433 -3.83319 
67 1 0.194095 0.105104 0.499716 1.81827 -1.69231 2.10818 
69 1 0.0951602 0.202655 0.497846 -0.0983301 2.75369 -2.27469 
76 1 -0.00866041 -0.00435494 0.603103 0.589774 -1.33006 4.03242 
77 1 0.0986058 0.100078 0.599585 -0.571596 1.28121 1.31021 
78 1 0.0974097 -0.00322139 0.709532 2.75088 -1.71606 -3.01407 
79 1 0.00196125 0.0914527 0.697517 2.87786 2.00042 3.24541 
80 1 0.201497 0.00261062 0.601907 -2.36056 0.381952 0.762998 
83 1 0.202759 0.0999037 0.699713 -0.0907203 -2.30504 -0.079945 
86 1 -0.00566249 0.192202 0.597663 -0.38608 0.821174 4.00056 
88 1 0.0979801 0.196753 0.697923 1.81115 -1.14001 -1.23318 
90 1 0.193578 0.199447 0.593107 3.09121 -1.4824 -0.718297 
66 1 0.304493 0.00237777 0.502607 -0.888909 0.917839 -0.378046 
68 1 0.402244 0.103716 0.500685 -2.50674 -2.65484 1.8291 
71 1 0.308355 0.211404 0.506564 -2.01902 1.33807 0.954183 
81 1 0.301666 0.108763 0.599136 -0.775786 2.05009 0.999549 
82 1 0.296641 0.00667713 0.704869 3.58371 -3.08867 0.364607 
84 1 0.400534 0.00673273 0.599793 3.79019 2.05877 0.453908 
85 1 0.407823 0.104466 0.703066 -0.166453 4.07163 -2.49392 
92 1 0.296465 0.200359 0.701324 1.17074 -1.51412 1.60417 
94 1 0.40495 0.203144 0.604105 1.82 -0.989237 -1.79602 
70 1 -0.007164 0.296931 0.493439 -0.125192 -3.42307 -0.463335 
72 1 0.203798 0.299023 0.507567 0.0376761 1.69821 -3.03173 
74 1 0.100826 0.397747 0.498402 2.38989 -2.02163 -0.867977 
87 1 0.0964158 0.298073 0.607122 -1.89574 1.13385 -2.0809 
89 1 -0.00807068 0.298164 0.695458 -2.11575 1.48445 0.216489 
93 1 0.192594 0.297628 0.69546 0.691309 -2.42836 -1.24017 
96 1 -0.00621469 0.403077 0.595373 0.655322 -2.66261 1.6041 
97 1 0.0996904 0.398907 0.703571 4.35196 -2.76779 0.233127 
98 1 0.196342 0.394353 0.606375 0.455494 0.826798 -0.501614 
73 1 0.405569 0.31069 0.501141 5.96014 -0.843941 -2.05404 
75 1 0.297822 0.403451 0.504403 0.143539 2.46972 0.163037 
91 1 0.319876 0.297933 0.60305 -1.66911 -5.10784 -0.968527 
95 1 0.40545 0.30175 0.70402 1.77227 -2.81618 0.774625 
99 1 0.296663 0.391855 0.698764 -1.22274 0.300489 0.304235 
100 1 0.402539 0.404528 0.597893 -2.18347 -2.48282 -1.78055 
101 1 -0.00190841 -0.00270898 0.800891 2.20318 3.49207 -4.38811 
102 1 0.0959978 0.0949801 0.796723 -5.61995 -1.84891 -3.48879 
103 1 0.103577 0.00219015 0.89324 3.21783 -0.605892 -1.88146 
104 1 -0.0128332 0.101404 0.902183 2.20689 0.749672 4.92371 
105 1 0.204723 -0.00415786 0.805404 -1.87358 2.22882 -0.00264885 
108 1 0.204007 0.0976042 0.903357 -0.419036 2.89341 -0.419689 
111 1 0.00131621 0.19806 0.792305 -2.1896 -4.20695 -2.98139 
113 1 0.0943494 0.197116 0.894427 -3.93516 -1.4552 -1.65305 
115 1 0.196283 0.196314 0.801544 0.128311 -0.0244349 2.31684 
106 1 0.299078 0.0957749 0.798166 0.205252 -3.88801 -1.73486 
107 1 0.312482 0.00157161 0.903773 -0.877981 -0.235376 1.23514 
109 1 0.40242 0.00477522 0.796771 0.366475 -0.0179586 -0.759002 
110 1 0.4055 0.100993 0.901647 1.44035 1.58408 0.229439 
117 1 0.300782 0.194037 0.903012 3.85024 1.60842 -1.97236 
119 1 0.398412 0.197246 0.796613 -1.10069 -0.696148 1.52567 
112 1 0.0989482 0.297264 0.795548 1.88669 -1.14707 -2.8226 
114 1 0.00208772 0.297013 0.890313 0.171777 0.934751 -1.16696 
118 1 0.198554 0.293232 0.899241 5.81045 0.430348 -0.842674 
121 1 0.00710746 0.40285 0.793351 -0.379937 -1.1885 2.35067 
122 1 0.100479 0.399953 0.905958 0.416749 -1.95082 -2.16215 
123 1 0.197133 0.399122 0.807872 -0.0957356 2.75464 -0.59133 
116 1 0.292229 0.299233 0.799621 5.69166 5.33392 1.77775 
120 1 0.389516 0.285162 0.902179 -2.87603 -2.54983 2.56334 
124 1 0.296419 0.393559 0.90043 2.73933 -2.45733 -0.620361 
125 1 0.399064 0.396028 0.803806 -3.9093 -2.38584 2.56841 
126 1 0.0981704 0.503561 -0.00181833 1.90239 1.92497 1.05134 
127 1 0.00515364 0.496142 0.0965889 1.48112 1.67386 0.465649 
129 1 0.201753 0.49807 0.100674 -1.46882 -1.85251 1.7486 
131 1 -0.00276445 0.596272 0.00678427 0.447399 0.749928 -0.425885 
132 1 0.108993 0.691147 0.0028831 5.22228 -0.797205 -0.673506 
133 1 0.0976341 0.593053 0.0928091 -1.32463 2.14896 -0.423148 
134 1 0.0183621 0.695655 0.095282 -2.14773 4.5659 -2.21925 
135 1 0.202721 0.59868 0.00351041 -0.408416 1.97616 -0.81866 
138 1 0.203398 0.698206 0.0942024 0.506679 -2.0293 -0.153826 
151 1 0.102471 0.495838 0.199634 -1.09893 2.6497 0.870195 
156 1 0.00281582 0.599103 0.193683 2.13503 -1.2251 0.765741 
157 1 0.106156 0.709769 0.202681 1.71173 0.185228 -2.02271 
160 1 0.199419 0.605103 0.185555 -2.48295 -2.75932 2.30972 
128 1 0.303886 0.493821 0.00232693 -1.17237 -0.668201 -2.71803 
130 1 0.398064 0.50018 0.0991675 -3.03731 -1.52345 1.24853 
136 1 0.296316 0.694255 -0.00629145 2.52366 -3.25339 1.35651 
137 1 0.300513 0.600947 0.101779 -0.410321 -1.83483 -1.05298 
139 1 0.397302 0.601313 0.00750014 -3.47127 -0.0507865 1.33136 
140 1 0.400919 0.709972 0.0981005 -0.0282371 -0.989948 -1.98786 
153 1 0.297594 0.502806 0.19244 2.06225 1.00155 -0.0187942 
161 1 0.308731 0.696912 0.195272 -1.42193 0.56995 -1.73392 
164 1 0.404645 0.604844 0.197006 -0.462136 -2.42088 4.37831 
141 1 0.00364422 0.799286 0.00195923 -1.28643 -1.60985 2.13893 
142 1 0.10781 0.90109 -0.00993681 -0.19687 0.0596265 -2.12868 
143 1 0.105732 0.804004 0.098734 -1.22879 2.73389 -2.1075 
144 1 0.00383127 0.907079 0.093629 -5.0231 1.99887 -2.68173 
145 1 0.197981 0.798806 -0.00053615 -0.95268 -4.02194 0.484276 
148 1 0.204957 0.900316 0.0991848 -1.1976 1.85389 1.40569 
166 1 0.00978072 0.803581 0.188976 -7.371 0.425245 0.851219 
167 1 0.103991 0.903829 0.19791 0.630868 3.48583 -2.27572 
170 1 0.203309 0.807053 0.204797 3.18744 -3.79183 -2.45346 
146 1 0.298213 0.903171 0.00788083 -1.30381 -2.3842 2.8269 
147 1 0.295731 0.797634 0.0986531 1.4058 0.193487 0.167926 
149 1 0.401827 0.799668 -0.000704737 0.230293 1.89399 4.52363 
150 1 0.399597 0.901444 0.0983326 -2.45293 5.93538 0.239648 
171 1 0.295172 0.913017 0.204077 3.42851 0.823789 1.83719 
174 1 0.418122 0.811133 0.202062 0.347551 -3.041 -0.446014 
152 1 0.00852718 0.506114 0.301811 1.47702 -1.98796 1.90263 
154 1 0.205588 0.498506 0.295341 3.57351 -1.45274 -4.84824 
158 1 0.101086 0.609415 0.295184 2.78553 -0.0311181 0.189845 
159 1 0.00437006 0.702762 0.293254 0.383235 1.16492 3.15358 
163 1 0.208865 0.696466 0.283024 1.33329 -3.08955 -0.429322 
176 1 0.108423 0.496824 0.395709 0.98675 2.8791 1.93415 
178 1 -0.00261034 0.61113 0.394347 -0.0950009 3.37009 2.77016 
179 1 0.100308 0.700347 0.39504 -0.486841 -1.78576 -0.372594 
180 1 0.20014 0.596154 0.398212 0.175165 -1.86033 -2.57741 
155 1 0.393357 0.505046 0.290003 -0.267386 -2.82004 2.38192 
162 1 0.296924 0.603342 0.299281 -5.06958 -2.87105 1.08101 
165 1 0.40206 0.704416 0.294754 0.316563 3.31286 0.969772 
177 1 0.292623 0.501733 0.404318 -0.105204 2.90524 -2.85544 
181 1 0.297866 0.701214 0.396307 1.28081 1.53281 0.540159 
182 1 0.392954 0.5993 0.397035 -3.12632 -1.99525 -3.1945 
168 1 0.0979486 0.803437 0.294428 2.55977 2.46992 4.14612 
169 1 0.0074712 0.900457 0.298825 -2.30623 1.7859 -2.44357 
173 1 0.210748 0.906779 0.30821 2.82929 0.643153 -4.41889 
183 1 0.00241654 0.794302 0.402729 -1.86211 0.819136 0.405807 
184 1 0.10427 0.901532 0.404799 2.07483 -3.37096 -0.381641 
185 1 0.203633 0.796457 0.397536 2.55254 1.25596 3.63761 
172 1 0.297728 0.792664 0.303229 -4.65844 -0.231699 1.2169 
175 1 0.394025 0.908417 0.303473 -3.12725 -1.64379 0.639907 
186 1 0.303587 0.898152 0.411172 -2.31465 1.99101 -2.35488 
187 1 0.406262 0.808411 0.403509 3.17807 -0.215338 -1.556 
188 1 -0.000511701 0.500683 0.488877 0.688336 -0.616217 5.41206 
189 1 0.196909 0.50192 0.500532 0.941931 -0.763704 -3.74968 
191 1 0.0972139 0.599825 0.484179 0.391812 1.80852 -0.167682 
192 1 -0.00633892 0.697099 0.49667 -0.416403 -2.17795 -3.86339 
194 1 0.200584 0.696707 0.492608 -0.496519 -1.68778 4.21427 
201 1 0.0945241 0.507735 0.597813 -1.1341 1.7583 0.274218 
202 1 0.0107378 0.50587 0.713584 1.22392 -1.58924 1.32805 
204 1 0.199702 0.501904 0.69553 2.18498 1.93104 0.424481 
206 1 0.000283536 0.599449 0.591884 -4.06768 1.942 -1.26565 
207 1 0.103273 0.699549 0.587889 -0.493535 0.996342 2.33735 
208 1 0.0986431 0.611196 0.698775 -0.138701 -2.57727 0.220558 
209 1 0.00167012 0.704706 0.689866 0.719348 -3.2504 0.326471 
210 1 0.205363 0.593995 0.591401 1.69455 4.76466 0.640645 
213 1 0.210055 0.697876 0.69917 1.29177 5.08573 -3.75945 
190 1 0.394999 0.506334 0.494506 -0.28965 4.40465 1.22619 
193 1 0.295957 0.597133 0.50449 -1.92832 -3.15327 -2.38371 
195 1 0.400255 0.701196 0.495427 0.22193 -0.549746 -5.82045 
203 1 0.301344 0.496234 0.594174 -4.23727 0.388235 -2.84312 
205 1 0.394832 0.489261 0.710504 -0.921175 -1.2122 2.7076 
211 1 0.302335 0.700013 0.599767 -0.399542 -1.5426 -0.805633 
212 1 0.304845 0.598235 0.711368 -3.91873 2.07747 0.848218 
214 1 0.393764 0.594887 0.599168 2.46286 -1.95291 3.06133 
215 1 0.400406 0.69627 0.706373 3.85942 -0.263267 0.492699 
196 1 0.10296 0.795708 0.498606 0.487125 -1.19185 5.86957 
197 1 -0.00109871 0.907851 0.499196 -6.21803 -1.96755 3.97251 
199 1 0.206889 0.910135 0.501072 1.00806 0.836299 3.67043 
216 1 0.00055503 0.795101 0.594634 -1.34906 3.85978 1.31789 
217 1 0.10623 0.899494 0.592191 2.01123 -0.180371 2.01037 
218 1 0.0934747 0.812382 0.6961 1.13155 -0.616602 0.0764807 
219 1 -0.00562208 0.891716 0.694753 -2.64303 -3.13868 1.20548 
220 1 0.202083 0.799881 0.606353 -2.04105 -2.48697 0.862577 
223 1 0.207599 0.896717 0.710071 3.47728 -3.54451 -1.24318 
198 1 0.303418 0.80291 0.503371 1.13767 -2.79561 -1.13083 
200 1 0.405904 0.898692 0.502049 1.99837 4.68399 0.884483 
221 1 0.303124 0.902898 0.602255 -0.720385 2.5273 -0.670304 
222 1 0.308396 0.796285 0.706354 2.66013 1.07623 -2.44568 
224 1 0.395431 0.803281 0.602249 -2.17672 1.00755 -0.841943 
225 1 0.405316 0.907504 0.701379 -0.199174 -3.3704 -0.902401 
226 1 0.102981 0.505051 0.80987 -4.37679 0.808382 -0.729028 
227 1 -0.00664054 0.503929 0.886776 -1.46355 1.89888 2.20108 
229 1 0.202103 0.503321 0.906769 1.87307 4.27016 -0.863483 
231 1 0.00349208 0.616782 0.79868 0.78222 -2.36059 -2.30297 
232 1 0.103183 0.70676 0.793617 -3.50272 3.00962 -0.0795157 
233 1 0.10048 0.60319 0.898386 -3.93499 -1.08952 -0.820335 
234 1 -0.00576367 0.703706 0.902912 3.23283 0.296667 -0.130317 
235 1 0.205526 0.602493 0.804012 3.4859 -1.89808 0.438719 
238 1 0.203054 0.701659 0.898076 0.481173 1.0011 -4.91997 
228 1 0.294832 0.496209 0.813409 -3.89053 1.41306 -1.34015 
230 1 0.401529 0.507346 0.917191 -0.558294 -3.51574 4.02295 
236 1 0.304573 0.696574 0.806691 1.8089 2.73352 -3.04893 
237 1 0.297374 0.602402 0.908022 -2.27178 0.0436522 -0.945528 
239 1 0.406002 0.599655 0.80474 2.51448 1.53124 1.81879 
240 1 0.4043 0.698257 0.907351 -0.280997 -0.855494 -0.466728 
241 1 -0.00590277 0.804674 0.799781 -2.71834 -0.849587 1.9522 
242 1 0.102217 0.897559 0.808369 -7.39332 2.8452 -1.23942 
243 1 0.110685 0.790456 0.89551 3.41769 -1.15123 -0.005868 
244 1 0.000495024 0.897539 0.903387 -3.21339 -1.62895 -0.531851 
245 1 0.209549 0.802411 0.800354 0.36521 0.579963 -0.711914 
248 1 0.204926 0.903877 0.899155 -0.777442 0.311742 -0.892818 
246 1 0.310674 0.905502 0.810847 -1.62449 -0.0765463 -0.438968 
247 1 0.300386 0.803465 0.915136 -1.98736 1.606 2.40696 
249 1 0.397575 0.802549 0.80331 0.816061 -0.927706 1.63106 
250 1 0.398891 0.900784 0.903023 -5.25486 1.11782 -3.27773 
251 1 0.494655 0.100783 -0.0028732 -0.246052 1.07407 -1.27559 
252 1 0.505357 0.00227077 0.0968819 -1.01105 -1.40678 1.20088 
253 1 0.605775 0.00383278 -0.00303139 -2.13453 0.845252 -2.35043 
254 1 0.701646 0.0946447 -0.00246238 -2.6539 0.921489 -0.363878 
255 1 0.706778 -0.00522571 0.104182 0.852008 -1.80105 3.41423 
256 1 0.606732 0.0906032 0.106867 3.86293 1.48399 0.366954 
262 1 0.502573 0.189327 0.0958621 -0.30046 -0.223887 1.31001 
263 1 0.599528 0.203333 0.00475744 -4.27149 -0.768498 -5.52456 
265 1 0.698374 0.200396 0.100549 -0.35426 0.809084 -0.444923 
276 1 0.495651 0.0943565 0.203717 -1.20418 0.227152 -0.378113 
278 1 0.595897 0.00603451 0.203385 0.996269 2.72564 -1.83002 
279 1 0.703955 0.0956939 0.204192 -3.83578 1.44039 2.66735 
288 1 0.593438 0.198982 0.199558 -3.37815 0.837649 3.73214 
257 1 0.797168 -0.00132601 -0.00185948 0.865457 0.890155 -2.55612 
258 1 0.895523 0.0981582 0.00181098 0.762356 0.298955 1.02035 
259 1 0.904125 7.24482e-05 0.0979485 -2.51217 0.682786 1.58853 
260 1 0.796867 0.10272 0.0968216 -0.870527 -1.1292 0.334248 
267 1 0.795432 0.200978 0.00339061 -2.99239 0.778364 -1.58461 
269 1 0.899837 0.203409 0.108822 -1.49199 -0.468035 -2.26033 
282 1 0.806376 -0.00507183 0.194178 1.88496 0.737842 -2.78128 
283 1 0.898126 0.0958168 0.201869 -3.27288 -1.5953 -2.06094 
292 1 0.79522 0.197733 0.18994 2.02706 -2.784 -2.64656 
261 1 0.495391 0.303117 0.00981285 3.82395 -1.56491 7.32375 
264 1 0.689037 0.304329 0.0110588 1.16947 3.8702 0.995621 
266 1 0.592779 0.303686 0.105516 -2.53825 0.829744 -0.36114 
271 1 0.497095 0.402191 0.0991915 -4.6292 -1.60859 -2.08943 
272 1 0.60883 0.404635 0.00559254 4.41512 3.62275 -0.0883562 
273 1 0.697577 0.409419 0.101211 -1.02173 -0.318761 -0.651465 
286 1 0.49675 0.302211 0.21049 3.42113 -7.95897 -0.0191201 
289 1 0.68964 0.29565 0.200126 -2.91355 -2.96654 1.04078 
297 1 0.597424 0.401297 0.204245 2.01664 0.370809 -0.948779 
268 1 0.901084 0.300303 -0.00485791 1.96166 -0.771025 2.42685 
270 1 0.793592 0.306072 0.112555 1.70441 1.89034 0.158867 
274 1 0.800093 0.396669 0.00827247 -0.356737 -2.59684 6.36578 
275 1 0.902858 0.406039 0.0995695 -3.1822 -0.512763 1.06438 
293 1 0.907159 0.308959 0.194247 -1.82361 2.61533 -0.351863 
299 1 0.80116 0.405273 0.19485 -0.522289 1.18773 -2.76002 
277 1 0.501222 -0.00211697 0.297572 -1.27792 1.65404 -2.11355 
280 1 0.700933 -0.0112737 0.293089 -0.943885 -1.7527 -1.04166 
281 1 0.597588 0.0934931 0.297666 -4.29941 -0.546882 -1.8211 
287 1 0.496525 0.196264 0.30174 1.12611 0.953257 -0.528249 
290 1 0.705805 0.199647 0.299832 -1.55924 -2.78609 -3.96328 
301 1 0.504545 0.102414 0.400269 -1.48114 -0.990993 1.31405 
302 1 0.603919 -0.00677622 0.39877 4.064 1.29041 2.09369 
303 1 0.699696 0.096228 0.390874 -1.36929 0.839512 1.21263 
307 1 0.601484 0.207252 0.402326 1.657 1.23223 -2.55916 
284 1 0.900985 0.00138736 0.296537 0.00793985 2.34163 -0.0198591 
285 1 0.801849 0.101539 0.293198 -3.23041 0.142292 5.9958 
294 1 0.906413 0.20522 0.291736 0.776898 1.97865 -2.40988 
304 1 0.798602 0.00223665 0.40501 -0.886414 0.181597 -0.473043 
305 1 0.895432 0.100897 0.392416 -1.02599 1.84381 -1.89627 
309 1 0.806151 0.194718 0.396262 -2.33126 -0.616901 4.52708 
291 1 0.604142 0.291964 0.301459 -1.66938 4.84251 1.82249 
296 1 0.496994 0.402318 0.306083 -1.15513 0.915267 2.26975 
298 1 0.703148 0.396559 0.296303 4.47477 -0.6337 -1.58751 
306 1 0.50437 0.299928 0.399686 1.8516 2.29677 0.653427 
308 1 0.69895 0.301743 0.406417 -1.07192 -3.64611 -0.803587 
311 1 0.594575 0.395725 0.39511 1.65412 -1.78309 3.39041 
295 1 0.807772 0.301169 0.278843 -1.97224 0.56566 -0.0425617 
300 1 0.903449 0.401591 0.301276 -0.141748 0.229187 -2.4054 
310 1 0.895507 0.297664 0.39622 3.60247 -1.98417 0.487136 
312 1 0.804357 0.403446 0.393097 2.04586 -2.41567 0.225872 
313 1 0.501564 0.00501452 0.50355 1.57324 -0.390717 -0.379062 
314 1 0.696434 -0.00404963 0.500358 1.43702 0.683795 1.28307 
315 1 0.595203 0.0995843 0.502478 -2.93004 -1.92113 -2.05917 
318 1 0.503253 0.201366 0.496337 3.49277 -1.73222 -3.33629 
319 1 0.700458 0.194899 0.500053 1.13579 -2.45275 1.01503 
326 1 0.508113 0.098723 0.607635 -2.97644 -1.11992 0.0250951 
327 1 0.505392 0.00631806 0.704207 0.0907849 1.1235 -1.67799 
328 1 0.597535 -0.00285847 0.603331 1.55797 1.31872 0.934117 
329 1 0.695033 0.0888745 0.600914 2.34555 -3.06172 -1.88067 
330 1 0.696262 -0.00593222 0.707885 -1.62296 -1.90038 0.226302 
331 1 0.606418 0.091389 0.699713 -1.07627 2.62737 6.89084 
337 1 0.507394 0.198968 0.699845 1.89036 -0.57921 -0.843245 
338 1 0.611651 0.203158 0.603224 -1.37014 1.73164 -0.790519 
340 1 0.706281 0.205912 0.698803 7.27451 0.524285 1.47872 
316 1 0.899891 -0.00227834 0.49193 1.5941 -2.25984 -2.8241 
317 1 0.791605 0.09304 0.503224 -3.38082 -2.45193 -1.71939 
321 1 0.899276 0.199002 0.501949 -1.04558 1.10908 0.0348016 
332 1 0.79281 -0.0075158 0.599428 -1.53477 -1.13469 3.69976 
333 1 0.894339 0.087118 0.597563 4.07343 -4.38948 -0.98232 
334 1 0.889979 -0.00256637 0.69638 0.256085 3.46391 -0.179969 
335 1 0.79587 0.0959984 0.700325 3.5601 3.15469 -1.62543 
342 1 0.793034 0.189543 0.602173 -0.264 -2.75376 -2.13605 
344 1 0.89706 0.202984 0.704714 -1.92288 1.47437 -0.463986 
320 1 0.593401 0.305927 0.50202 0.0352572 -1.74399 0.829925 
323 1 0.499886 0.411587 0.503171 -1.12504 1.34446 -1.708 
324 1 0.695749 0.399441 0.503098 1.11479 1.83763 -2.59393 
336 1 0.498615 0.302377 0.595419 -1.46856 0.0624246 2.72423 
339 1 0.71007 0.303685 0.595929 -1.95975 -1.01146 0.0340699 
341 1 0.592065 0.296266 0.703965 -4.28623 1.13838 -0.169189 
346 1 0.496141 0.391418 0.698488 2.27877 -2.11638 -0.36245 
347 1 0.601298 0.39588 0.604464 0.432164 -1.02668 -2.28778 
348 1 0.70257 0.389661 0.705293 -2.39485 -0.139766 1.84811 
322 1 0.803362 0.298826 0.495847 -1.01391 2.04828 -1.0096 
325 1 0.899936 0.40287 0.504202 -0.754846 -1.14468 0.621476 
343 1 0.886394 0.298784 0.602157 0.658272 0.670528 0.171028 
345 1 0.803735 0.302443 0.700252 2.5518 4.83971 -1.75502 
349 1 0.797759 0.409848 0.605065 2.87453 1.0538 0.313851 
350 1 0.903223 0.398906 0.697785 3.16034 -3.93867 -1.17392 
351 1 0.504228 0.101138 0.805725 -1.95855 2.03229 -2.15913 
352 1 0.492944 -0.0047119 0.908614 0.43031 2.40829 3.13205 
353 1 0.600799 -0.000462321 0.80418 1.02019 -0.973888 -4.03908 
354 1 0.698776 0.101742 0.807338 -3.22774 0.128209 -4.40998 
355 1 0.701579 0.000503212 0.890731 1.27938 -0.42948 2.1832 
356 1 0.593318 0.0976426 0.906002 3.21969 0.0608989 -0.217631 
362 1 0.503637 0.203733 0.899384 0.161404 2.11926 -0.132203 
363 1 0.614408 0.192177 0.805956 -2.44645 6.3118 2.66961 
365 1 0.703302 0.199803 0.9115 0.415317 4.75141 -1.28679 
357 1 0.798628 0.00573744 0.801266 2.5144 3.55807 3.73147 
358 1 0.897966 0.103931 0.794214 3.28819 3.57157 1.16721 
359 1 0.892511 -0.000185209 0.899465 -0.876417 2.48378 1.25246 
360 1 0.798037 0.101726 0.901233 3.82861 -1.66294 1.09469 
367 1 0.796588 0.197868 0.799407 2.60961 0.994632 0.0561253 
369 1 0.89853 0.207034 0.898523 -0.436833 2.23777 4.92109 
361 1 0.493719 0.304204 0.801032 -0.880247 0.923805 1.07211 
364 1 0.696593 0.301214 0.80491 -2.55392 1.55623 -3.51479 
366 1 0.601263 0.307799 0.906456 0.532692 1.28564 -2.6702 
371 1 0.501214 0.400585 0.909443 3.1154 -0.7048 4.50342 
372 1 0.595045 0.398706 0.799976 -2.01632 -3.14951 1.34054 
373 1 0.698781 0.402705 0.906463 -0.0450103 -6.52398 0.0175777 
368 1 0.902254 0.311104 0.800257 -1.081 0.438225 3.1796 
370 1 0.798461 0.306124 0.897727 -2.43575 -0.703409 2.08431 
374 1 0.802175 0.400675 0.796596 1.46841 1.54225 2.65319 
375 1 0.899659 0.404266 0.895777 1.09886 -2.29377 -2.27874 
376 1 0.501258 0.508734 0.00887919 -3.3967 -1.16063 -1.43296 
377 1 0.694509 0.506889 -0.00507679 3.31758 3.97162 0.988906 
378 1 0.596254 0.498209 0.102405 0.131946 -2.98257 2.94023 
381 1 0.508192 0.700585 -0.00600608 -0.849698 -0.16493 -3.00393 
382 1 0.502568 0.604897 0.0977794 2.50937 -3.77725 -0.348327 
383 1 0.603113 0.603276 -0.00791856 0.305839 0.28162 -0.825697 
384 1 0.70099 0.701108 0.00098776 1.98295 -1.53329 3.42788 
385 1 0.695258 0.605645 0.101463 0.992762 4.10388 -1.93375 
386 1 0.600294 0.699391 0.0949066 1.13055 -2.70684 -2.1469 
401 1 0.497244 0.503309 0.20214 -0.0655073 4.5106 1.46938 
402 1 0.693365 0.504903 0.207261 1.26578 -5.48872 0.689685 
406 1 0.503939 0.707473 0.204998 -1.58204 -0.490816 -2.50694 
408 1 0.596461 0.596199 0.198487 -2.10582 0.536931 -3.42744 
409 1 0.697962 0.698184 0.202002 0.459827 -0.162444 2.09152 
379 1 0.906488 0.503033 -0.00311738 -0.0545752 1.52854 -0.754656 
380 1 0.800292 0.498655 0.0928148 2.2485 2.91424 -8.14595 
387 1 0.791321 0.600088 0.00418332 0.658774 -3.23347 -2.2401 
388 1 0.898546 0.69381 -0.0029734 -1.64516 -0.55977 -3.95181 
389 1 0.895015 0.59904 0.0903411 -1.18045 -3.26726 0.427885 
390 1 0.801114 0.691906 0.0959598 5.43349 2.32797 0.47314 
404 1 0.904394 0.498096 0.202719 -0.700378 1.02194 -0.781773 
412 1 0.802115 0.597202 0.199607 -2.93441 -3.45001 -1.59912 
413 1 0.905585 0.685841 0.193664 2.54083 3.57138 -1.7909 
391 1 0.508494 0.895685 0.00616417 0.119927 3.88064 -5.97453 
392 1 0.503075 0.800218 0.0996614 -1.29427 -5.35727 -0.166045 
393 1 0.603382 0.802579 0.00316632 -2.20012 -2.59783 -2.94422 
394 1 0.697986 0.904955 -0.00094713 -3.93696 -1.42495 -1.88987 
395 1 0.695481 0.805116 0.0948348 -0.140165 2.0496 0.741103 
396 1 0.602899 0.898885 0.109707 1.87629 -1.43246 -0.848963 
416 1 0.497266 0.910795 0.199316 -3.23534 0.879109 -0.461645 
418 1 0.60235 0.797615 0.198484 2.41959 3.294 -0.764808 
419 1 0.701924 0.8934 0.195767 1.55905 1.83974 -3.48524 
397 1 0.797472 0.796528 0.00540062 3.29458 -4.61984 3.04835 
398 1 0.902083 0.900004 0.00299127 -2.59736 -1.16244 0.431647 
399 1 0.909471 0.791774 0.0923717 -1.12156 -2.48074 3.24626 
400 1 0.811893 0.894311 0.101773 1.18058 -1.83264 1.20617 
422 1 0.807522 0.791012 0.198256 2.171 -4.08968 -4.48577 
423 1 0.903912 0.897844 0.202494 0.436682 -4.8589 -2.15529 
403 1 0.591076 0.493505 0.300873 -0.971911 -4.08161 -0.706095 
407 1 0.503843 0.599825 0.2989 -1.35907 1.21278 -1.00021 
410 1 0.708613 0.599346 0.305047 0.281612 -5.24304 0.408672 
411 1 0.600385 0.699235 0.296505 0.653897 1.59732 -0.285517 
426 1 0.490413 0.507655 0.401475 3.76778 -1.20618 -2.13204 
427 1 0.698237 0.495546 0.399804 -0.150216 -2.70373 -2.41923 
429 1 0.494038 0.692678 0.390073 1.71576 1.22742 0.128971 
430 1 0.599985 0.603177 0.397325 -3.45193 -0.335238 2.77319 
431 1 0.697479 0.704036 0.390645 -0.643724 -5.15664 2.92029 
405 1 0.798396 0.497513 0.298972 4.44578 -3.71449 -0.474583 
414 1 0.904619 0.599583 0.295889 0.5782 4.18232 1.36752 
415 1 0.803669 0.695047 0.29496 5.27531 2.41726 -1.27839 
428 1 0.911019 0.507714 0.39574 5.24716 5.62219 1.36181 
432 1 0.801138 0.597783 0.394939 -3.83629 2.37922 -0.513025 
433 1 0.904754 0.700516 0.396535 3.61571 -1.20705 -2.94559 
417 1 0.510879 0.798219 0.30164 0.489345 2.64322 0.354765 
420 1 0.701517 0.801403 0.290452 0.30751 6.5497 1.10179 
421 1 0.603974 0.898107 0.297512 -1.3472 -3.07314 -2.68511 
434 1 0.504028 0.902289 0.39596 0.977201 0.397341 -2.75235 
435 1 0.596629 0.796807 0.399042 0.97819 0.33772 -3.3585 
436 1 0.70133 0.894102 0.392626 2.50486 -1.1321 4.05389 
424 1 0.896362 0.802399 0.295656 -4.60328 -1.07898 -1.37469 
425 1 0.799805 0.898964 0.291519 -3.21016 1.31429 1.46335 
437 1 0.79738 0.795294 0.398772 0.693097 -0.914171 1.68163 
438 1 0.896505 0.910466 0.393185 -3.34919 -0.477762 1.59172 
439 1 0.603021 0.495764 0.501568 0.00446551 -0.77598 4.68067 
441 1 0.502078 0.591825 0.501758 2.36048 2.94001 -1.96327 
442 1 0.705684 0.60209 0.494227 2.64452 2.14808 2.01084 
443 1 0.594522 0.694861 0.499584 1.32513 2.08612 3.17719 
451 1 0.493972 0.50036 0.60581 -2.27449 -2.75398 4.16065 
452 1 0.696004 0.496674 0.596988 2.09717 -4.57009 1.96979 
453 1 0.598554 0.490887 0.70193 0.230523 -2.12579 0.318235 
456 1 0.507345 0.69648 0.60349 -1.61692 2.42462 -2.65388 
457 1 0.49692 0.596167 0.699019 0.238972 0.497851 -1.28606 
458 1 0.596036 0.586159 0.606554 2.64062 2.67981 -0.294604 
459 1 0.689381 0.697214 0.598616 -2.36833 -1.29861 0.111044 
460 1 0.688996 0.583754 0.703437 -4.10653 -0.772748 0.56787 
461 1 0.602525 0.70064 0.694445 -0.700702 -2.34705 0.73039 
440 1 0.793179 0.498323 0.494235 4.84599 5.33299 -2.25787 
444 1 0.897512 0.595485 0.496929 -3.0645 0.420059 0.217905 
445 1 0.803003 0.696789 0.505882 -0.914445 1.78726 -0.510472 
454 1 0.900134 0.503264 0.600012 -1.8803 -3.40569 -2.8628 
455 1 0.798744 0.505099 0.705624 2.29853 0.412316 -1.77323 
462 1 0.794585 0.596608 0.603855 -3.25645 -0.541378 0.00487496 
463 1 0.898098 0.69651 0.604043 0.742094 -1.06588 0.0413675 
464 1 0.907592 0.601057 0.694278 0.356523 -1.74152 1.60663 
465 1 0.795635 0.692321 0.702274 -3.35166 -1.23425 2.09069 
446 1 0.495657 0.796638 0.500057 2.23804 -1.06265 4.51967 
447 1 0.695388 0.801724 0.508059 0.686944 0.351315 -0.928216 
448 1 0.603093 0.894091 0.492966 1.54129 2.30062 2.12464 
466 1 0.496874 0.904915 0.60211 2.26528 -0.754701 0.0526337 
467 1 0.49777 0.807048 0.70226 1.354 0.435809 2.97678 
468 1 0.598922 0.806135 0.602707 0.399814 -0.170928 -1.51437 
469 1 0.697546 0.900868 0.5931 1.14382 1.65688 3.26156 
470 1 0.700848 0.803492 0.699926 1.04305 -1.3347 0.914646 
471 1 0.600758 0.899772 0.705322 0.178267 0.789296 1.41748 
449 1 0.896009 0.801312 0.501804 0.64986 -0.440676 -0.138725 
450 1 0.801589 0.897207 0.499042 -0.466673 1.15488 -0.742009 
472 1 0.798141 0.800306 0.599453 -0.803298 -1.92351 -0.00207936 
473 1 0.891703 0.897489 0.592316 1.0222 -0.805213 5.32941 
474 1 0.890955 0.797461 0.692565 -3.53256 -0.610754 -0.390541 
475 1 0.794936 0.890651 0.701044 3.74801 1.69718 5.26546 
476 1 0.496556 0.486951 0.80178 0.278259 -0.902569 2.14919 
477 1 0.69214 0.494276 0.80449 3.13304 -1.78806 -3.29835 
478 1 0.597633 0.491896 0.898521 0.0295112 -2.66313 -1.4326 
481 1 0.502345 0.702587 0.796714 -2.8528 2.38937 -0.733692 
482 1 0.498533 0.60368 0.903936 5.5402 -0.679856 -0.569634 
483 1 0.59409 0.589375 0.808938 1.75995 2.25831 -0.510058 
484 1 0.694507 0.697883 0.80018 -4.45328 0.00728726 -0.406422 
485 1 0.695785 0.599616 0.890272 -0.365855 0.0407877 3.45083 
486 1 0.601515 0.703249 0.896622 3.47195 2.49154 0.334349 
479 1 0.906183 0.500377 0.796146 0.232676 2.20438 1.73211 
480 1 0.800085 0.503481 0.906246 -2.58811 1.45338 3.10996 
487 1 0.80497 0.597077 0.799022 1.47268 2.34244 -2.28785 
488 1 0.903696 0.701759 0.801466 -3.57599 -1.1682 -0.230006 
489 1 0.897747 0.60232 0.891746 1.85274 -1.3071 3.25016 
490 1 0.787601 0.695469 0.893939 1.4854 3.04089 0.64303 
491 1 0.498086 0.902037 0.802071 -2.84936 0.961831 3.61681 
492 1 0.497926 0.797089 0.89687 0.875119 -1.4161 -0.0139478 