ITEM: TIMESTEP
2
ITEM: NUMBER OF ATOMS
4
ITEM: BOX BOUNDS pp pp pp
0 3.6288
0 3.6288
0 3.6288
ITEM: ATOMS id type xs ys zs vx vy vz 
1 1 -0.000557202 -0.00168363 -0.000194829 -1.01037 -3.04694 -0.350603 
2 1 0.498541 0.502313 -0.00116686 -2.64186 4.18796 -2.11155 
3 1 0.500918 -0.000139051 0.501318 1.66321 -0.248757 2.38515 
4 1 0.00109844 0.499509 0.500044 1.98902 -0.892262 0.0770039 
