ITEM: TIMESTEP
10000
ITEM: NUMBER OF ATOMS
6000
ITEM: BOX BOUNDS pp pp pp
0 18.144
0 18.144
0 217.728
ITEM: ATOMS id type xs ys zs
1 1 0.0114001 0.00747664 -0.000485308
2 1 0.103406 0.113727 -0.000136415
3 1 0.100869 0.00965441 0.00799767
4 1 0.00120214 0.109279 0.00815064
5 1 0.204317 0.00783513 0.000376842
8 1 0.207814 0.10536 0.00818799
21 1 0.00761092 0.210289 7.11029e-05
23 1 0.106171 0.203004 0.00831204
25 1 0.205105 0.196929 -0.00073424
101 1 0.00514314 0.00845604 0.0169964
102 1 0.103875 0.102803 0.0165685
105 1 0.199165 0.00547879 0.016839
121 1 0.000296611 0.206774 0.0166927
125 1 0.205968 0.21049 0.0169543
6 1 0.306175 0.103606 -0.000416868
7 1 0.301072 -0.00043759 0.00818081
9 1 0.396366 0.00461484 -0.000163565
12 1 0.402587 0.104255 0.00835355
27 1 0.303476 0.205557 0.00794743
29 1 0.399254 0.211773 -0.000801949
106 1 0.305948 0.101752 0.0163093
109 1 0.399421 -0.00247275 0.0166162
129 1 0.410709 0.206156 0.0168
10 1 0.496132 0.105752 2.81344e-05
11 1 0.501164 0.00565993 0.00830327
13 1 0.596203 0.0114039 0.00078053
14 1 0.698261 0.103048 0.000166253
15 1 0.70099 -0.000578123 0.00825466
16 1 0.6007 0.107127 0.00928298
31 1 0.492096 0.203531 0.00801868
33 1 0.598713 0.20622 0.000288592
35 1 0.702207 0.201713 0.00813715
110 1 0.502184 0.101907 0.0168537
113 1 0.602677 0.00295131 0.016595
114 1 0.707809 0.101473 0.0161221
133 1 0.605881 0.20061 0.0169128
17 1 0.795505 0.00371378 0.0003198
18 1 0.909448 0.0978328 0.000381757
19 1 0.899999 0.00438882 0.00853378
20 1 0.805672 0.104959 0.0084953
37 1 0.805195 0.196064 0.00054732
39 1 0.909184 0.201092 0.0084792
117 1 0.803484 -0.00178278 0.0165013
118 1 0.902908 0.105698 0.0170114
137 1 0.803402 0.201702 0.0160896
22 1 0.100327 0.305138 -0.000116836
24 1 0.00145677 0.302691 0.0081024
28 1 0.201534 0.299783 0.00809531
41 1 0.00145187 0.406532 -0.000435023
43 1 0.101057 0.404284 0.00800376
45 1 0.201226 0.409713 -2.90536e-05
122 1 0.105183 0.302261 0.016382
141 1 -0.0023929 0.399178 0.0169331
145 1 0.201381 0.403132 0.0163245
26 1 0.300827 0.302058 0.000152712
32 1 0.402217 0.307215 0.0083439
47 1 0.296175 0.408049 0.00858889
49 1 0.399038 0.402421 -5.6902e-05
126 1 0.297744 0.299259 0.0159328
149 1 0.396079 0.400863 0.0163593
30 1 0.502333 0.308527 0.00070245
34 1 0.700723 0.305439 0.000314184
36 1 0.602723 0.29767 0.00862748
51 1 0.500731 0.407399 0.0084155
53 1 0.599862 0.402155 0.000368448
55 1 0.699513 0.40296 0.00869734
130 1 0.504213 0.301544 0.0166012
134 1 0.70451 0.305119 0.016754
153 1 0.601554 0.406576 0.0166194
38 1 0.903183 0.306881 -9.7995e-05
40 1 0.801873 0.30458 0.00832482
57 1 0.803995 0.400878 -7.43519e-05
59 1 0.902958 0.403486 0.00852757
138 1 0.89473 0.303264 0.0166903
157 1 0.799096 0.406244 0.0170534
42 1 0.103981 0.501858 -0.000197582
44 1 0.00025931 0.498445 0.00835379
48 1 0.204032 0.502072 0.00902707
61 1 0.00803306 0.600909 -0.000212134
62 1 0.105159 0.703966 0.000269678
63 1 0.095254 0.600325 0.00843839
64 1 0.00899831 0.70261 0.00840991
65 1 0.200422 0.607883 0.000283809
68 1 0.206387 0.706578 0.00854876
142 1 0.100802 0.500397 0.0171391
161 1 0.0103334 0.608065 0.0169132
162 1 0.103295 0.711832 0.016773
165 1 0.197676 0.601177 0.0166937
46 1 0.297555 0.508244 0.000205398
52 1 0.402644 0.500325 0.00802642
66 1 0.308589 0.709227 0.000222904
67 1 0.304858 0.604248 0.00877876
69 1 0.399329 0.612036 -9.43581e-05
72 1 0.403628 0.705672 0.00845247
146 1 0.31093 0.510706 0.0167238
166 1 0.304153 0.703922 0.0169881
169 1 0.404438 0.602902 0.0171009
50 1 0.504055 0.503519 -9.50067e-05
54 1 0.706462 0.504048 -0.000247061
56 1 0.602359 0.497168 0.00849414
70 1 0.50496 0.708126 4.62437e-05
71 1 0.495357 0.606875 0.00763636
73 1 0.600009 0.595819 -4.99819e-05
74 1 0.698724 0.692622 0.000432242
75 1 0.701158 0.600697 0.00886103
76 1 0.600212 0.698294 0.00804778
150 1 0.499713 0.505796 0.0167572
154 1 0.705237 0.508954 0.0172949
170 1 0.503723 0.701865 0.0169815
173 1 0.601609 0.603008 0.0163361
174 1 0.705221 0.702394 0.0163573
58 1 0.904708 0.503878 -3.28345e-07
60 1 0.806351 0.504763 0.00809424
77 1 0.809726 0.605478 0.000231443
78 1 0.914175 0.699841 0.000171219
79 1 0.909397 0.605854 0.00825928
80 1 0.805702 0.700581 0.00833821
158 1 0.905347 0.503729 0.0164131
177 1 0.810472 0.604538 0.0166273
178 1 0.912491 0.699529 0.016721
81 1 0.00978421 0.81033 -0.00028809
82 1 0.107626 0.904227 -0.000617082
83 1 0.107654 0.801245 0.0081001
84 1 0.00270365 0.901159 0.00774768
85 1 0.201363 0.80213 -0.000317721
88 1 0.198668 0.907041 0.00793641
181 1 0.00418136 0.809989 0.0159781
182 1 0.0986578 0.913538 0.0156969
185 1 0.210128 0.811139 0.0171369
86 1 0.295452 0.907749 -0.000104092
87 1 0.305428 0.806335 0.00881118
89 1 0.399239 0.807891 0.000160375
92 1 0.402542 0.905735 0.00804631
186 1 0.306821 0.906567 0.0163907
189 1 0.402736 0.80184 0.0168325
90 1 0.505875 0.901187 -0.000304112
91 1 0.503376 0.805563 0.00880375
93 1 0.601123 0.803485 8.61783e-05
94 1 0.706571 0.907276 -0.000471091
95 1 0.69991 0.800895 0.00729506
96 1 0.598452 0.901069 0.00775532
190 1 0.505914 0.905475 0.016082
193 1 0.60603 0.804135 0.0160715
194 1 0.699028 0.902225 0.0163421
97 1 0.807859 0.803744 -0.000331916
98 1 0.900089 0.91042 -0.000225687
99 1 0.906761 0.80146 0.00755414
100 1 0.792556 0.890036 0.00796804
197 1 0.804055 0.798325 0.0166754
198 1 0.891318 0.901203 0.0159589
103 1 0.0937193 0.00456314 0.0254052
104 1 0.00304037 0.101781 0.0254871
108 1 0.196976 0.10396 0.0252514
123 1 0.101524 0.205811 0.0256816
201 1 0.000965701 0.00241333 0.0334958
202 1 0.0993273 0.107716 0.0333709
205 1 0.194289 0.00229737 0.0339634
221 1 0.000904713 0.199705 0.0336102
225 1 0.204611 0.200558 0.033269
107 1 0.301038 0.0030769 0.0246794
112 1 0.40204 0.0968918 0.0244432
127 1 0.308932 0.201987 0.0248689
206 1 0.294428 0.0997298 0.0333566
209 1 0.39799 0.00198357 0.0336363
229 1 0.394448 0.203101 0.0336812
111 1 0.509301 0.00730169 0.0254151
115 1 0.700459 0.00229645 0.0247896
116 1 0.601556 0.0944678 0.0248706
131 1 0.494976 0.199931 0.0253233
135 1 0.69892 0.203223 0.0247947
210 1 0.503239 0.108907 0.0343721
213 1 0.605392 0.00616081 0.0337756
214 1 0.703661 0.107348 0.03282
233 1 0.601743 0.199363 0.0330933
119 1 0.899104 0.00120942 0.0247949
120 1 0.796026 0.106793 0.0248647
139 1 0.902328 0.197502 0.0249332
217 1 0.801803 0.00152647 0.0331106
218 1 0.902841 0.0989546 0.0329565
237 1 0.809038 0.201208 0.0332541
124 1 0.00427211 0.30654 0.0249575
128 1 0.207272 0.305183 0.025102
143 1 0.100795 0.401607 0.0248135
222 1 0.101135 0.307126 0.0337814
241 1 0.00200798 0.399457 0.0333712
245 1 0.196165 0.401455 0.0334511
132 1 0.397817 0.303824 0.0252756
147 1 0.300559 0.397199 0.0242165
226 1 0.298558 0.300396 0.0336316
249 1 0.39529 0.402173 0.0330913
136 1 0.590945 0.298552 0.0249287
151 1 0.499941 0.402203 0.024964
155 1 0.70169 0.403152 0.0250228
230 1 0.492723 0.301608 0.0334995
234 1 0.698224 0.30199 0.0329585
253 1 0.597395 0.397058 0.0330265
140 1 0.799738 0.305253 0.0249664
159 1 0.901998 0.39882 0.0249784
238 1 0.904855 0.300526 0.0328561
257 1 0.807814 0.396982 0.0339599
144 1 0.00317401 0.502728 0.0249856
148 1 0.202282 0.496892 0.0251931
163 1 0.103748 0.605066 0.0250011
164 1 0.0052783 0.709331 0.0247862
168 1 0.210898 0.703915 0.0248903
242 1 0.0984617 0.504447 0.0331988
261 1 0.00593663 0.607077 0.0328476
262 1 0.103477 0.702652 0.0330805
265 1 0.195499 0.61179 0.0333003
152 1 0.405674 0.501594 0.0252335
167 1 0.301126 0.599824 0.025006
172 1 0.398162 0.708121 0.0253051
246 1 0.29058 0.494408 0.0336097
266 1 0.307897 0.708009 0.0343821
269 1 0.398644 0.600315 0.0330126
156 1 0.601369 0.506938 0.02526
171 1 0.494474 0.607385 0.025446
175 1 0.700019 0.608748 0.0252156
176 1 0.602353 0.705487 0.0250129
250 1 0.495403 0.498403 0.0338676
254 1 0.704083 0.499115 0.0333892
270 1 0.500414 0.706111 0.0331102
273 1 0.601575 0.599651 0.0334013
274 1 0.696378 0.702945 0.0332371
160 1 0.808238 0.500909 0.0258754
179 1 0.907713 0.608009 0.0249354
180 1 0.802552 0.700719 0.0248035
258 1 0.904156 0.504468 0.033559
277 1 0.802582 0.609347 0.0330825
278 1 0.907134 0.706714 0.0333852
183 1 0.100795 0.808225 0.0244292
184 1 -0.00501233 0.904591 0.024718
188 1 0.203107 0.914815 0.0256284
281 1 0.00563133 0.805187 0.0329064
282 1 0.104635 0.903034 0.0330211
285 1 0.199204 0.802115 0.0330927
187 1 0.304672 0.813774 0.0253651
192 1 0.405189 0.908891 0.0249323
286 1 0.301151 0.905527 0.033683
289 1 0.407903 0.805582 0.0336507
191 1 0.499943 0.80599 0.0247141
195 1 0.700475 0.799892 0.0248849
196 1 0.606528 0.904689 0.0247561
290 1 0.507319 0.905905 0.0329618
293 1 0.596885 0.80227 0.033196
294 1 0.696018 0.907973 0.0331115
199 1 0.896172 0.801865 0.024916
200 1 0.796457 0.904689 0.0247857
297 1 0.800791 0.795969 0.033204
298 1 0.896911 0.898969 0.0328416
203 1 0.0960712 0.00549742 0.0419289
204 1 0.00103585 0.102035 0.0414322
208 1 0.199773 0.105466 0.0420385
223 1 0.100748 0.200937 0.0413908
301 1 -5.49188e-05 -0.00265168 0.0503727
302 1 0.0958319 0.0994997 0.0503139
305 1 0.201472 -0.00734076 0.0501504
321 1 -0.00348012 0.193042 0.0504529
325 1 0.191793 0.20417 0.0499511
207 1 0.300932 0.00571575 0.0415602
212 1 0.395286 0.103975 0.0421235
227 1 0.300275 0.202907 0.0417151
306 1 0.301765 0.102264 0.0496219
309 1 0.399652 0.00953397 0.0496094
329 1 0.396855 0.201742 0.050618
211 1 0.501404 0.00166883 0.0417506
215 1 0.70128 0.00452776 0.041419
216 1 0.599189 0.108025 0.0419102
231 1 0.501489 0.209366 0.0414614
235 1 0.705563 0.19778 0.0411099
310 1 0.495085 0.10287 0.050174
313 1 0.601039 0.0174242 0.0496901
314 1 0.704615 0.1074 0.0502851
333 1 0.59476 0.211588 0.0500481
219 1 0.904364 -0.00102289 0.0417853
220 1 0.799191 0.0983 0.0412696
239 1 0.897585 0.19804 0.041632
317 1 0.799869 -0.00748163 0.0492971
318 1 0.895777 0.0924964 0.050814
337 1 0.798436 0.207385 0.0500877
224 1 0.00262997 0.303159 0.0415868
228 1 0.203664 0.304533 0.042405
243 1 0.100571 0.405949 0.0418967
322 1 0.0969169 0.304492 0.0500419
341 1 -0.00156834 0.405711 0.0504903
345 1 0.202223 0.407634 0.0495305
232 1 0.400402 0.310111 0.0425938
247 1 0.304725 0.401233 0.0424867
326 1 0.300027 0.305606 0.0502603
349 1 0.401097 0.406581 0.050473
236 1 0.605944 0.298007 0.041702
251 1 0.495957 0.403796 0.0420827
255 1 0.69912 0.398362 0.0412828
330 1 0.503788 0.307037 0.0500271
334 1 0.698568 0.304246 0.049925
353 1 0.605359 0.406305 0.0498357
240 1 0.80309 0.303672 0.0418651
259 1 0.90253 0.400198 0.0420971
338 1 0.907087 0.298729 0.0496046
357 1 0.791681 0.401663 0.0497555
244 1 0.000578624 0.499465 0.0418933
248 1 0.193439 0.504474 0.0414275
263 1 0.0922671 0.610447 0.0416652
264 1 0.00668286 0.710272 0.0415781
268 1 0.195215 0.707123 0.0419678
342 1 0.0941972 0.507054 0.0501257
361 1 -0.0082856 0.60716 0.0500951
362 1 0.0969081 0.700977 0.0498814
365 1 0.201883 0.601035 0.0500592
252 1 0.395572 0.510302 0.0411355
267 1 0.297812 0.60437 0.0417118
272 1 0.412267 0.698323 0.0414843
346 1 0.296358 0.501367 0.0495848
366 1 0.300799 0.704565 0.0495945
369 1 0.395873 0.596085 0.0496765
256 1 0.604539 0.507704 0.0413506
271 1 0.502785 0.597953 0.0413561
275 1 0.697464 0.604402 0.0417983
276 1 0.59539 0.702133 0.0414065
350 1 0.498644 0.505281 0.0499517
354 1 0.705452 0.504645 0.049963
370 1 0.497316 0.698481 0.0499652
373 1 0.604467 0.608882 0.0497991
374 1 0.700723 0.712107 0.0496281
260 1 0.798179 0.512205 0.0413874
279 1 0.900834 0.602324 0.0411016
280 1 0.80099 0.709338 0.0416117
358 1 0.902437 0.498997 0.0502677
377 1 0.804862 0.604604 0.0494556
378 1 0.901986 0.701724 0.0497908
283 1 0.107279 0.804938 0.0416001
284 1 -0.002363 0.90169 0.0410113
288 1 0.196976 0.902022 0.0415208
381 1 0.00133588 0.800711 0.049351
382 1 0.0969066 0.897237 0.0499302
385 1 0.199806 0.807063 0.0503212
287 1 0.294694 0.813486 0.0418047
292 1 0.400522 0.903847 0.0417896
386 1 0.306325 0.902649 0.0499083
389 1 0.40699 0.800947 0.0494912
291 1 0.503149 0.807297 0.0415243
295 1 0.694774 0.804465 0.0409881
296 1 0.603282 0.900039 0.0413927
390 1 0.505931 0.908978 0.0502461
393 1 0.597491 0.799269 0.0502314
394 1 0.694339 0.897794 0.0499974
299 1 0.905303 0.807805 0.0411249
300 1 0.80061 0.902595 0.0409906
397 1 0.798478 0.80846 0.0500287
398 1 0.89472 0.896976 0.0498388
303 1 0.103714 0.00260591 0.0588327
304 1 -0.00164673 0.100016 0.0595042
308 1 0.204606 0.0978275 0.0577526
323 1 0.105322 0.193539 0.058399
401 1 0.0106193 -0.0014234 0.0672939
402 1 0.111834 0.105095 0.0669923
405 1 0.206852 -0.00221591 0.066286
421 1 0.0056256 0.205877 0.0660108
425 1 0.199276 0.211755 0.0664157
307 1 0.304717 -0.00613411 0.0578856
312 1 0.402225 0.100401 0.0583076
327 1 0.2987 0.205144 0.0586816
406 1 0.30314 0.106495 0.0666473
409 1 0.395736 0.00461104 0.0665531
429 1 0.404919 0.205321 0.0670845
311 1 0.502765 0.00858436 0.058122
315 1 0.698574 0.0107149 0.0581703
316 1 0.599878 0.108789 0.0589
331 1 0.49869 0.207076 0.0587282
335 1 0.708098 0.212253 0.058335
410 1 0.503904 0.107439 0.0669566
413 1 0.596819 0.00488984 0.0665835
414 1 0.706239 0.112273 0.0668506
433 1 0.600104 0.211812 0.0671074
319 1 0.902722 -0.00486313 0.058769
320 1 0.802944 0.0992727 0.0585878
339 1 0.896929 0.201848 0.0580333
417 1 0.794186 0.000585398 0.0668245
418 1 0.895975 0.0980198 0.0667969
437 1 0.801523 0.202714 0.0668175
324 1 -0.00223369 0.302536 0.0581927
328 1 0.19898 0.307446 0.058187
343 1 0.100442 0.404185 0.0587512
422 1 0.100371 0.305896 0.0660541
441 1 -0.00316336 0.401159 0.0669228
445 1 0.203877 0.406289 0.0669131
332 1 0.403744 0.306447 0.0593715
347 1 0.299719 0.406917 0.058239
426 1 0.307274 0.306618 0.066741
449 1 0.403216 0.414824 0.0666434
336 1 0.596332 0.306517 0.0585796
351 1 0.501258 0.399555 0.0584673
355 1 0.707769 0.405193 0.0585694
430 1 0.498031 0.301676 0.067591
434 1 0.693793 0.31307 0.0672642
453 1 0.597385 0.413863 0.0670037
340 1 0.800012 0.30705 0.0590506
359 1 0.889874 0.395958 0.0578739
438 1 0.901357 0.301553 0.0666543
457 1 0.803386 0.40215 0.0668506
344 1 -0.00427038 0.507348 0.0585251
348 1 0.19981 0.508191 0.0584129
363 1 0.100975 0.614712 0.0583486
364 1 0.00199855 0.709227 0.0579059
368 1 0.200728 0.710641 0.0579795
442 1 0.10003 0.504755 0.0665039
461 1 0.00743978 0.608185 0.0668784
462 1 0.106884 0.706481 0.0669588
465 1 0.196567 0.60398 0.0669568
352 1 0.396099 0.50838 0.0587211
367 1 0.294121 0.601703 0.0582476
372 1 0.400067 0.702601 0.0580732
446 1 0.295935 0.508267 0.0674
466 1 0.295524 0.700056 0.0668039
469 1 0.398895 0.613092 0.0668598
356 1 0.602116 0.502024 0.0586369
371 1 0.501009 0.603452 0.0582801
375 1 0.704305 0.604891 0.0578523
376 1 0.608016 0.70241 0.0578746
450 1 0.503432 0.51442 0.0666329
454 1 0.705923 0.505917 0.0668776
470 1 0.504863 0.703794 0.0667073
473 1 0.601062 0.608695 0.0665919
474 1 0.692293 0.702817 0.0664256
360 1 0.802674 0.500091 0.0584007
379 1 0.901318 0.604323 0.0589002
380 1 0.801287 0.708699 0.0583902
458 1 0.906333 0.508905 0.066643
477 1 0.803615 0.605039 0.0666304
478 1 0.902779 0.710552 0.0671791
383 1 0.0985451 0.801191 0.0586579
384 1 -0.00430438 0.900787 0.0582933
388 1 0.199805 0.900681 0.0583895
481 1 0.00740822 0.808866 0.066867
482 1 0.113376 0.902966 0.0669816
485 1 0.2038 0.806446 0.0665959
387 1 0.302872 0.804006 0.0585174
392 1 0.405486 0.902867 0.0583228
486 1 0.303601 0.89682 0.0664935
489 1 0.398217 0.801765 0.0669386
391 1 0.495111 0.801399 0.0583218
395 1 0.70558 0.800744 0.0584543
396 1 0.59793 0.910329 0.0586142
490 1 0.503226 0.901365 0.0666886
493 1 0.60067 0.805106 0.0665524
494 1 0.697549 0.903793 0.066353
399 1 0.899682 0.804197 0.0586658
400 1 0.80219 0.903427 0.0585176
497 1 0.796652 0.800189 0.0668288
498 1 0.909803 0.902947 0.0671796
403 1 0.108132 0.00365119 0.0750586
404 1 0.00101335 0.105993 0.0743804
408 1 0.203819 0.110365 0.0746066
423 1 0.101828 0.202005 0.0746371
501 1 0.00363572 0.0109854 0.0834211
502 1 0.101931 0.104525 0.0828264
505 1 0.202731 0.00795222 0.0834882
521 1 0.00869744 0.201056 0.0832142
525 1 0.209599 0.205626 0.0840443
407 1 0.298332 0.00737818 0.07463
412 1 0.396865 0.110994 0.0746349
427 1 0.303126 0.210915 0.0747756
506 1 0.30512 0.104574 0.0827338
509 1 0.396126 0.00565896 0.0830686
529 1 0.403827 0.208791 0.0833783
411 1 0.498535 0.00441247 0.0739991
415 1 0.701739 0.00304546 0.0746778
416 1 0.605165 0.108578 0.0749551
431 1 0.502586 0.206053 0.0748289
435 1 0.706002 0.209027 0.075764
510 1 0.493409 0.100449 0.0832498
513 1 0.600993 0.00716378 0.0829385
514 1 0.709397 0.109909 0.0831145
533 1 0.601349 0.201563 0.0836659
419 1 0.903314 0.00576027 0.0753703
420 1 0.798813 0.101567 0.0747917
439 1 0.902112 0.206851 0.0750634
517 1 0.812234 0.000413612 0.0831391
518 1 0.897836 0.106285 0.0832134
537 1 0.80526 0.205516 0.0831325
424 1 0.00184238 0.301777 0.0752201
428 1 0.198955 0.308735 0.0749257
443 1 0.0985231 0.403657 0.0747504
522 1 0.106436 0.310079 0.083077
541 1 0.00640389 0.406688 0.0834164
545 1 0.201411 0.407515 0.0835433
432 1 0.408493 0.307354 0.0756139
447 1 0.311623 0.406041 0.0749242
526 1 0.307075 0.313711 0.083205
549 1 0.416068 0.404782 0.0835146
436 1 0.603064 0.302274 0.0762304
451 1 0.500568 0.408321 0.0749533
455 1 0.70095 0.406206 0.0748455
530 1 0.506227 0.299819 0.0841372
534 1 0.702221 0.31222 0.0839095
553 1 0.595598 0.410992 0.083842
440 1 0.805509 0.304419 0.0752746
459 1 0.898958 0.402038 0.0751128
538 1 0.903782 0.303612 0.0835064
557 1 0.808711 0.406906 0.0831986
444 1 0.00491865 0.507903 0.0750586
448 1 0.201281 0.509892 0.0755792
463 1 0.102771 0.598293 0.0754411
464 1 0.00807595 0.706368 0.075196
468 1 0.197975 0.702425 0.0753456
542 1 0.107363 0.508068 0.0835971
561 1 -0.00302832 0.604101 0.0837369
562 1 0.101368 0.691187 0.0831882
565 1 0.209801 0.605935 0.0839995
452 1 0.40425 0.513007 0.0750602
467 1 0.303137 0.612166 0.0755579
472 1 0.405963 0.706176 0.0750666
546 1 0.304215 0.500719 0.0831896
566 1 0.303987 0.70857 0.0835959
569 1 0.403304 0.60791 0.0836645
456 1 0.60302 0.515314 0.0748496
471 1 0.50262 0.607349 0.0752338
475 1 0.703123 0.607811 0.0750588
476 1 0.604947 0.709367 0.0751421
550 1 0.50434 0.513402 0.0834499
554 1 0.707095 0.4982 0.0832898
570 1 0.504907 0.704821 0.0832641
573 1 0.602344 0.606186 0.0836561
574 1 0.701318 0.705174 0.0839088
460 1 0.80405 0.503894 0.0750338
479 1 0.903203 0.603373 0.0752393
480 1 0.797121 0.703081 0.0749763
558 1 0.90367 0.500971 0.0836569
577 1 0.810469 0.604229 0.0834914
578 1 0.901763 0.703668 0.083573
483 1 0.104666 0.800065 0.0754701
484 1 0.0135739 0.898986 0.0751964
488 1 0.197819 0.898779 0.0759587
581 1 0.00236482 0.795657 0.0838554
582 1 0.101463 0.904525 0.0839913
585 1 0.193773 0.795597 0.0836766
487 1 0.298189 0.798092 0.0752609
492 1 0.408079 0.901735 0.0745111
586 1 0.300647 0.91235 0.0824188
589 1 0.40134 0.804633 0.083192
491 1 0.505958 0.804077 0.0749729
495 1 0.695011 0.80621 0.0747069
496 1 0.604632 0.910967 0.0747962
590 1 0.498765 0.909696 0.0831005
593 1 0.597709 0.807597 0.0833337
594 1 0.698917 0.90884 0.0833492
499 1 0.903065 0.799941 0.0752012
500 1 0.793916 0.900756 0.074851
597 1 0.803414 0.802991 0.0825615
598 1 0.902419 0.899307 0.0835788
503 1 0.0997291 0.00549303 0.0913601
504 1 0.00303538 0.106922 0.0911606
508 1 0.201358 0.0991219 0.0916549
523 1 0.106946 0.202172 0.091348
601 1 0.00963292 -0.00132096 0.100028
602 1 0.0954654 0.111106 0.0998747
605 1 0.199538 0.00302223 0.100001
621 1 -0.00269333 0.212506 0.0997811
625 1 0.205782 0.216268 0.0997966
507 1 0.297201 0.00669846 0.0922242
512 1 0.391295 0.106989 0.0914435
527 1 0.304925 0.21654 0.091476
606 1 0.294692 0.111197 0.0998047
609 1 0.398768 0.00460528 0.0995516
629 1 0.404831 0.210163 0.0997531
511 1 0.50438 0.00275956 0.0916472
515 1 0.702454 0.00542824 0.0916033
516 1 0.612533 0.100271 0.0914729
531 1 0.500228 0.193859 0.0915296
535 1 0.705242 0.202238 0.0914315
610 1 0.505528 0.105595 0.0994955
613 1 0.604615 0.00615224 0.10023
614 1 0.703888 0.103281 0.100134
633 1 0.607263 0.204238 0.0996249
519 1 0.905082 0.0108742 0.092076
520 1 0.796229 0.104546 0.0915835
539 1 0.896214 0.202071 0.0908824
617 1 0.797872 0.00988092 0.100243
618 1 0.906526 0.103168 0.099644
637 1 0.809791 0.201066 0.100176
524 1 0.00420708 0.302705 0.0915195
528 1 0.204447 0.310925 0.0914621
543 1 0.100602 0.407039 0.0916668
622 1 0.098995 0.308484 0.100504
641 1 -0.000720374 0.40703 0.100173
645 1 0.200579 0.403498 0.0997753
532 1 0.41052 0.303649 0.0916128
547 1 0.306817 0.403682 0.0921556
626 1 0.311685 0.30823 0.100165
649 1 0.413676 0.406501 0.100161
536 1 0.603988 0.309598 0.0918764
551 1 0.505536 0.410962 0.0919633
555 1 0.70564 0.402604 0.0918213
630 1 0.500929 0.297183 0.100244
634 1 0.706101 0.309201 0.100246
653 1 0.607872 0.41011 0.100166
540 1 0.802377 0.306248 0.0920161
559 1 0.905967 0.404173 0.0919978
638 1 0.897925 0.302332 0.100295
657 1 0.801157 0.407693 0.100473
544 1 0.00443833 0.501596 0.0917206
548 1 0.205039 0.508265 0.0917305
563 1 0.100883 0.603207 0.0922509
564 1 0.00391719 0.70536 0.0922407
568 1 0.205914 0.70668 0.0922816
642 1 0.103216 0.511412 0.100377
661 1 0.00159671 0.6026 0.100339
662 1 0.104662 0.70267 0.100616
665 1 0.20504 0.606001 0.0998397
552 1 0.404324 0.504839 0.0911162
567 1 0.301696 0.608781 0.0916321
572 1 0.402173 0.708147 0.0915273
646 1 0.304751 0.499052 0.100296
666 1 0.302344 0.708294 0.100373
669 1 0.40213 0.606388 0.100002
556 1 0.60561 0.508516 0.0917304
571 1 0.501454 0.609728 0.0917697
575 1 0.709341 0.604952 0.0918463
576 1 0.608055 0.707656 0.0916397
650 1 0.50198 0.513569 0.0994102
654 1 0.701106 0.503743 0.0999568
670 1 0.505293 0.709921 0.0997568
673 1 0.602562 0.610537 0.099076
674 1 0.70918 0.707878 0.0998774
560 1 0.803647 0.500402 0.0913603
579 1 0.903618 0.603006 0.0921126
580 1 0.800208 0.707396 0.0913431
658 1 0.898256 0.498933 0.100359
677 1 0.800248 0.603224 0.100014
678 1 0.901084 0.698713 0.0999421
583 1 0.103253 0.804825 0.0919152
584 1 0.00975435 0.898571 0.0916075
588 1 0.204903 0.910885 0.0912593
681 1 0.00250401 0.807907 0.0996627
682 1 0.109793 0.907468 0.0998757
685 1 0.208134 0.808001 0.100263
587 1 0.305429 0.808799 0.0914623
592 1 0.404722 0.904646 0.0911832
686 1 0.30068 0.906275 0.100004
689 1 0.403006 0.806062 0.0997626
591 1 0.50608 0.799792 0.0917024
595 1 0.704063 0.804515 0.0912382
596 1 0.608381 0.908415 0.0914887
690 1 0.503793 0.90581 0.0998809
693 1 0.602834 0.802194 0.0998154
694 1 0.705213 0.904934 0.100493
599 1 0.90261 0.80351 0.0921132
600 1 0.799271 0.901733 0.0918813
697 1 0.802353 0.801549 0.0995998
698 1 0.905025 0.907563 0.100016
603 1 0.0985488 0.00555861 0.108584
604 1 -0.000800981 0.109235 0.108166
608 1 0.197825 0.110367 0.107993
623 1 0.112918 0.207753 0.10818
701 1 -0.00109883 0.00731882 0.115917
702 1 0.0969564 0.103112 0.116397
705 1 0.201223 0.0107144 0.116526
721 1 0.00622148 0.206304 0.117088
725 1 0.204872 0.209145 0.11679
607 1 0.298175 0.0106025 0.107271
612 1 0.395585 0.103624 0.108107
627 1 0.302917 0.204136 0.108093
706 1 0.303346 0.101605 0.116401
709 1 0.398214 0.000983836 0.116285
729 1 0.402455 0.207927 0.116296
611 1 0.501714 0.00899946 0.108026
615 1 0.703346 0.00552155 0.108318
616 1 0.603077 0.106619 0.108271
631 1 0.502183 0.205934 0.108788
635 1 0.704631 0.204087 0.108118
710 1 0.505921 0.110895 0.116439
713 1 0.601138 0.00010865 0.116697
714 1 0.707739 0.0964885 0.116246
733 1 0.604449 0.200634 0.116791
619 1 0.906467 0.00160489 0.107636
620 1 0.813956 0.10183 0.108615
639 1 0.909035 0.208922 0.107939
717 1 0.807631 0.0093723 0.117102
718 1 0.901359 0.102452 0.116183
737 1 0.803539 0.200811 0.11613
624 1 0.00472468 0.309496 0.108375
628 1 0.208879 0.304816 0.107931
643 1 0.107261 0.404423 0.107966
722 1 0.104819 0.306521 0.11653
741 1 0.00346021 0.404195 0.117096
745 1 0.207927 0.409348 0.11647
632 1 0.40977 0.303977 0.108154
647 1 0.305601 0.40788 0.107997
726 1 0.298405 0.303332 0.11673
749 1 0.4068 0.403078 0.116029
636 1 0.610195 0.302039 0.108049
651 1 0.517633 0.406219 0.108115
655 1 0.705783 0.401356 0.108639
730 1 0.509416 0.316198 0.116291
734 1 0.705496 0.303877 0.116919
753 1 0.608229 0.408261 0.117375
640 1 0.807719 0.304899 0.108352
659 1 0.905022 0.408093 0.108575
738 1 0.907392 0.306403 0.116676
757 1 0.798293 0.40769 0.116806
644 1 0.00548355 0.50493 0.108866
648 1 0.207699 0.512293 0.109157
663 1 0.110303 0.604178 0.108686
664 1 0.000732684 0.705223 0.108438
668 1 0.207606 0.707802 0.108324
742 1 0.10699 0.50043 0.117048
761 1 0.0110554 0.603549 0.116834
762 1 0.106844 0.711285 0.116187
765 1 0.208056 0.612568 0.116979
652 1 0.4059 0.508934 0.108912
667 1 0.309641 0.605508 0.107904
672 1 0.410264 0.705444 0.108066
746 1 0.304615 0.508481 0.116845
766 1 0.305765 0.702681 0.116165
769 1 0.409742 0.607609 0.116775
656 1 0.605729 0.506453 0.108166
671 1 0.501041 0.604847 0.10812
675 1 0.699273 0.604887 0.107775
676 1 0.606523 0.706867 0.10819
750 1 0.506015 0.504395 0.116733
754 1 0.710535 0.510923 0.116397
770 1 0.505528 0.706368 0.116739
773 1 0.599325 0.606424 0.11628
774 1 0.698322 0.706922 0.11626
660 1 0.801181 0.507353 0.108508
679 1 0.904191 0.603777 0.108516
680 1 0.798493 0.703925 0.108724
758 1 0.90729 0.511294 0.116493
777 1 0.804778 0.607051 0.11609
778 1 0.9045 0.702195 0.116372
683 1 0.109683 0.814291 0.107966
684 1 0.00578187 0.900985 0.107857
688 1 0.209329 0.906447 0.108134
781 1 0.0103308 0.808434 0.116576
782 1 0.106403 0.90439 0.116544
785 1 0.212604 0.802998 0.116763
687 1 0.307838 0.807427 0.108238
692 1 0.400985 0.909389 0.108249
786 1 0.304352 0.910312 0.116516
789 1 0.402745 0.809095 0.116642
691 1 0.50766 0.810916 0.10832
695 1 0.700941 0.809495 0.108405
696 1 0.605732 0.908887 0.108659
790 1 0.508185 0.904647 0.116409
793 1 0.611098 0.81021 0.116448
794 1 0.708497 0.907395 0.117073
699 1 0.901479 0.799971 0.107657
700 1 0.805694 0.908274 0.108669
797 1 0.807679 0.807952 0.116716
798 1 0.906049 0.90409 0.116944
703 1 0.0984877 0.00165305 0.124715
704 1 0.000885309 0.106614 0.125081
708 1 0.202181 0.104821 0.124607
723 1 0.104368 0.207155 0.125191
801 1 0.00117478 0.00731827 0.133356
802 1 0.102641 0.105021 0.132994
805 1 0.201558 0.00653686 0.133344
821 1 0.00683814 0.210101 0.132947
825 1 0.211843 0.206475 0.132748
707 1 0.30636 0.0038285 0.125123
712 1 0.412644 0.10508 0.125035
727 1 0.307101 0.197328 0.124286
806 1 0.311271 0.103519 0.133241
809 1 0.409702 -0.00560256 0.133305
829 1 0.405958 0.216072 0.132993
711 1 0.502085 0.00272506 0.124802
715 1 0.708556 0.00736705 0.124939
716 1 0.612513 0.106211 0.124799
731 1 0.504705 0.209781 0.124761
735 1 0.710127 0.197743 0.124695
810 1 0.498318 0.106583 0.133385
813 1 0.594401 0.00648852 0.133617
814 1 0.705178 0.110513 0.13378
833 1 0.607776 0.207911 0.133612
719 1 0.910578 0.00812352 0.124673
720 1 0.80371 0.104592 0.12499
739 1 0.9027 0.201963 0.124452
817 1 0.805223 0.0108113 0.132846
818 1 0.90667 0.105561 0.133165
837 1 0.809519 0.202122 0.133158
724 1 0.00735635 0.307854 0.125074
728 1 0.202734 0.30695 0.125071
743 1 0.110044 0.40793 0.125238
822 1 0.109138 0.309244 0.133174
841 1 0.00157557 0.406228 0.132679
845 1 0.209647 0.401167 0.133322
732 1 0.41186 0.30685 0.124198
747 1 0.306455 0.401396 0.125411
826 1 0.307849 0.302478 0.132835
849 1 0.406399 0.408317 0.133157
736 1 0.601559 0.304946 0.124813
751 1 0.505509 0.407592 0.125137
755 1 0.703073 0.414506 0.125267
830 1 0.509656 0.307126 0.132885
834 1 0.709807 0.30743 0.132756
853 1 0.605529 0.40932 0.133261
740 1 0.804488 0.298353 0.12469
759 1 0.90111 0.402362 0.124721
838 1 0.900295 0.302918 0.133002
857 1 0.814774 0.407801 0.132888
744 1 0.00884727 0.510693 0.125235
748 1 0.209718 0.507959 0.124926
763 1 0.110687 0.605366 0.124706
764 1 0.0159867 0.704336 0.124884
768 1 0.207927 0.704125 0.125503
842 1 0.109628 0.504253 0.133821
861 1 0.0121112 0.603281 0.133324
862 1 0.100033 0.708585 0.133518
865 1 0.211479 0.603865 0.133963
752 1 0.401813 0.50645 0.125099
767 1 0.312468 0.6103 0.125321
772 1 0.413367 0.703563 0.125752
846 1 0.309396 0.508719 0.133455
866 1 0.306286 0.707847 0.133907
869 1 0.407735 0.603055 0.134286
756 1 0.612168 0.50782 0.124699
771 1 0.50473 0.598816 0.125152
775 1 0.703059 0.612047 0.124636
776 1 0.601801 0.710098 0.12446
850 1 0.507366 0.503647 0.132823
854 1 0.702034 0.513544 0.133684
870 1 0.503701 0.704917 0.134191
873 1 0.600491 0.606861 0.133093
874 1 0.70053 0.702772 0.133253
760 1 0.804972 0.509599 0.124725
779 1 0.906096 0.598264 0.124621
780 1 0.805551 0.707147 0.124865
858 1 0.910376 0.506911 0.133452
877 1 0.818099 0.599492 0.133985
878 1 0.915794 0.703543 0.13311
783 1 0.109262 0.807448 0.124633
784 1 0.00511892 0.90787 0.125052
788 1 0.201747 0.903774 0.124574
881 1 0.00885123 0.80948 0.132674
882 1 0.108022 0.905705 0.133249
885 1 0.206415 0.804601 0.133148
787 1 0.301041 0.80002 0.124774
792 1 0.403529 0.906669 0.124922
886 1 0.302298 0.898623 0.132886
889 1 0.406784 0.805187 0.133553
791 1 0.505163 0.805792 0.124704
795 1 0.702136 0.803674 0.125351
796 1 0.611794 0.907301 0.125442
890 1 0.506734 0.904867 0.133379
893 1 0.607729 0.804255 0.133429
894 1 0.703239 0.900681 0.133722
799 1 0.90875 0.809691 0.124974
800 1 0.811633 0.906372 0.125327
897 1 0.813572 0.797679 0.133285
898 1 0.90698 0.908281 0.133787
803 1 0.105399 0.00465524 0.141883
804 1 0.00901173 0.103845 0.141437
808 1 0.204728 0.109732 0.141318
823 1 0.10523 0.206944 0.141369
901 1 0.00579197 0.00584784 0.149767
902 1 0.114345 0.102991 0.149968
905 1 0.204731 0.00213503 0.149535
921 1 0.00845857 0.20407 0.150287
925 1 0.201821 0.203776 0.150073
807 1 0.302612 0.00372104 0.141756
812 1 0.406932 0.105357 0.141331
827 1 0.311767 0.207327 0.140954
906 1 0.30707 0.111404 0.149619
909 1 0.399732 -0.00575698 0.149804
929 1 0.400313 0.204539 0.149411
811 1 0.50208 0.00400481 0.141767
815 1 0.709005 0.00570625 0.141287
816 1 0.608557 0.111425 0.142095
831 1 0.504915 0.203729 0.141521
835 1 0.714442 0.210263 0.141337
910 1 0.503208 0.109565 0.149376
913 1 0.60072 0.00656169 0.150194
914 1 0.709679 0.114442 0.149762
933 1 0.610873 0.20878 0.149727
819 1 0.907041 0.00884152 0.141614
820 1 0.807333 0.105988 0.141367
839 1 0.907728 0.208798 0.141765
917 1 0.806185 0.00283717 0.149505
918 1 0.901361 0.103126 0.149804