ITEM: TIMESTEP
1003
ITEM: NUMBER OF ATOMS
500
ITEM: BOX BOUNDS pp pp pp
0 18.144
0 18.144
0 18.144
ITEM: ATOMS id type xs ys zs vx vy vz 
2 1 0.0975985 0.101685 0.00388271 4.48093 0.639415 -4.44762 
5 1 0.207555 0.00421397 0.000526719 3.0228 -3.3281 -0.305661 
8 1 0.203416 0.103549 0.0998536 0.337707 -0.0706561 0.443624 
23 1 0.0939058 0.205259 0.101684 1.18247 -1.07503 3.43751 
25 1 0.200038 0.20182 0.00518348 -2.51906 0.620871 -1.28118 
101 1 0.00216508 0.00590082 0.188706 -0.4034 -0.0885109 -2.23166 
102 1 0.102276 0.103017 0.196588 -4.29632 -6.60143 -0.661079 
105 1 0.19486 -0.000135093 0.19152 0.206101 -1.21222 -1.06992 
125 1 0.198459 0.200262 0.198079 0.682219 -3.67154 -4.37554 
6 1 0.301864 0.104213 0.00221549 -0.342527 3.14833 -1.06126 
12 1 0.407218 0.0893814 0.0957446 -2.9738 1.86777 -2.23862 
27 1 0.303415 0.194575 0.0980159 2.14849 0.393346 -0.443602 
106 1 0.303064 0.105564 0.185162 1.68378 -1.7843 -0.996572 
109 1 0.402966 0.00174398 0.199343 1.06472 -1.4494 -0.0172295 
129 1 0.398704 0.199691 0.195262 -0.58012 -1.23614 1.79778 
31 1 0.491433 0.205304 0.0878446 1.29969 0.49988 1.75637 
110 1 0.494397 0.110243 0.195508 -0.290831 1.90407 -0.173278 
14 1 0.691434 0.102722 0.00279806 -0.996158 -1.45229 6.45535 
16 1 0.590238 0.0972389 0.0964697 2.1003 1.02404 1.02808 
33 1 0.6018 0.213917 -0.000200378 -3.4966 1.46324 -1.92968 
35 1 0.695973 0.205565 0.0930453 -0.865361 0.536466 3.26027 
114 1 0.704394 0.0989146 0.193044 1.11713 2.24729 -1.64945 
133 1 0.600197 0.200344 0.203002 -2.42942 -3.17469 0.850202 
4 1 0.993139 0.10431 0.0999512 1.80374 0.188985 3.14251 
121 1 0.989991 0.201832 0.200071 0.146688 3.10301 1.96164 
18 1 0.899865 0.0946205 0.00253901 1.1874 -0.0489937 2.38975 
20 1 0.803721 0.102039 0.0932928 -0.71969 1.87247 0.96656 
37 1 0.788032 0.203683 0.00155816 -3.14466 3.44304 -0.269142 
39 1 0.900114 0.20976 0.107825 -1.70483 -1.64265 1.05966 
118 1 0.893687 0.0963347 0.191088 4.70251 -3.12234 0.701276 
137 1 0.792935 0.200662 0.198354 -2.59923 3.68054 -2.37423 
28 1 0.208425 0.298362 0.103652 1.04768 -4.02027 -2.16891 
43 1 0.0982388 0.396838 0.107736 -0.0746209 2.01617 2.58746 
45 1 0.195909 0.399312 0.00619398 -3.42542 -2.31845 -3.14795 
122 1 0.100588 0.308574 0.203968 -0.147866 0.810579 2.28666 
145 1 0.202291 0.399192 0.198257 -4.92516 1.0088 0.973199 
42 1 0.100132 0.497385 0.00265678 -2.11497 -0.121595 4.69536 
44 1 0.00224163 0.495108 0.103438 -0.82021 -1.70279 -1.8263 
26 1 0.294107 0.298175 0.00241766 -2.02147 -1.33245 3.90339 
32 1 0.400821 0.293611 0.0941994 -1.87253 0.798316 -3.32105 
47 1 0.307233 0.396016 0.105073 -0.0817724 1.89107 -4.02165 
126 1 0.306372 0.301084 0.199823 -2.70136 2.26162 -1.30197 
149 1 0.402043 0.404765 0.204668 -3.25798 4.2802 -1.42941 
51 1 0.492309 0.390565 0.100265 -3.236 1.13591 0.788457 
130 1 0.496656 0.292541 0.195696 -3.04224 2.01233 -0.492301 
146 1 0.29291 0.49689 0.206685 -3.65299 2.70709 2.8332 
36 1 0.599891 0.298261 0.100919 2.96927 1.41387 0.58126 
53 1 0.590383 0.402427 0.00393452 -0.76181 -1.20985 2.63178 
55 1 0.692382 0.405243 0.105513 4.41138 0.419523 0.776435 
134 1 0.699858 0.300708 0.201505 -2.9119 -1.13271 -1.23974 
153 1 0.59742 0.392774 0.198338 0.726649 4.85321 -1.77015 
54 1 0.693348 0.492249 0.00219226 -3.25382 -1.01471 0.235958 
56 1 0.602564 0.496257 0.109292 1.54466 4.66064 -2.49498 
24 1 0.992624 0.307193 0.105516 1.06171 0.431028 -0.376203 
41 1 0.996577 0.393086 0.00274772 -3.64873 4.17285 2.1592 
141 1 0.997899 0.403648 0.204029 0.291338 1.69293 0.602339 
38 1 0.899102 0.299936 0.00158477 -2.41441 0.286923 -2.46143 
40 1 0.793894 0.305005 0.0946515 0.350907 -0.864535 -4.62977 
59 1 0.903559 0.397718 0.0980022 -1.70652 2.54249 -1.22132 
138 1 0.897653 0.305526 0.200802 -0.417148 -1.17999 -2.35404 
157 1 0.803928 0.402 0.199249 1.12915 -0.140608 0.404959 
58 1 0.903947 0.494872 0.00675872 -1.28728 0.306807 -5.49536 
48 1 0.193539 0.505043 0.105264 -5.07424 0.501268 3.70116 
63 1 0.102801 0.596711 0.101638 0.439969 1.50762 3.42217 
68 1 0.202877 0.703446 0.0952131 -2.778 -1.07351 -1.4451 
142 1 0.0970525 0.504147 0.210491 1.24564 0.199089 2.41592 
161 1 0.000184716 0.603361 0.205865 -0.340155 -0.311869 -1.61023 
162 1 0.110171 0.692619 0.202796 0.0722086 -1.6144 2.91287 
165 1 0.198372 0.597901 0.203077 -3.21111 -3.33486 1.67461 
52 1 0.39726 0.506916 0.0997367 5.06743 -4.63096 -0.104634 
67 1 0.292712 0.592879 0.100903 -1.52498 -0.0696468 1.45732 
69 1 0.39411 0.60157 0.00373755 0.631258 0.212349 -2.7139 
72 1 0.392167 0.694687 0.108036 -1.93796 2.86129 -2.37377 
166 1 0.294917 0.702642 0.207189 2.83552 1.32692 2.26163 
169 1 0.397674 0.598091 0.203187 -0.292955 -2.34452 2.22707 
50 1 0.49835 0.507576 0.00168401 -1.23639 0.638204 0.397178 
150 1 0.498595 0.500738 0.204216 1.63529 0.635537 1.77639 
170 1 0.498699 0.696609 0.19775 4.43633 -1.39926 -0.0295542 
70 1 0.509726 0.697684 0.00596311 6.18007 -0.86648 -0.63611 
71 1 0.50515 0.597741 0.107268 0.310794 -2.83088 -1.31806 
73 1 0.602692 0.596087 0.00358835 -6.83715 -2.19726 2.74369 
74 1 0.705006 0.700177 0.000143732 2.84314 -0.979451 -5.03316 
75 1 0.712482 0.600221 0.110964 -3.30187 2.76151 -1.29745 
76 1 0.606839 0.692407 0.104291 0.519519 1.62577 4.19029 
154 1 0.707786 0.503889 0.203071 -2.66378 1.59167 3.46503 
173 1 0.603726 0.594277 0.204707 -1.73647 -3.15979 2.29445 
174 1 0.69755 0.706713 0.208476 0.799113 3.49072 0.0268577 
61 1 0.998077 0.603705 0.00379834 -2.26671 -0.985893 3.84692 
64 1 0.995203 0.699154 0.106587 -0.894576 3.49177 1.25339 
60 1 0.804451 0.500509 0.10951 -1.26632 -1.01314 -1.93944 
77 1 0.794507 0.600127 -0.000447716 0.12436 0.693001 -3.53011 
78 1 0.908757 0.699842 0.000669017 -2.74687 -5.35969 -0.622075 
79 1 0.899267 0.598307 0.102751 0.668013 4.03406 0.299231 
80 1 0.80518 0.702282 0.0978408 0.778963 -1.45562 -1.74171 
158 1 0.901897 0.507216 0.203165 3.28952 -2.23512 -1.77956 
177 1 0.809088 0.609061 0.206966 0.99963 0.635084 1.25458 
178 1 0.905897 0.712502 0.201336 6.62557 0.693642 0.337588 
3 1 0.0987956 0.998983 0.0918239 0.856506 4.75779 -2.38663 
83 1 0.0981643 0.791102 0.0983569 0.218587 -1.40496 -1.88608 
84 1 0.00921223 0.895752 0.0986573 -1.67431 -0.687321 -3.66352 
85 1 0.193366 0.797304 0.000999059 4.43927 -2.50607 -0.151187 
88 1 0.197159 0.897082 0.0984718 2.75083 -2.28669 0.0863849 
181 1 0.0126598 0.793266 0.202042 2.79045 1.29908 1.74136 
182 1 0.0993312 0.891825 0.200129 -0.936666 -0.774634 -2.09297 
185 1 0.201953 0.799975 0.195015 -1.54319 -2.31913 3.52059 
7 1 0.301639 0.995684 0.0967154 3.26837 5.058 1.77279 
87 1 0.300524 0.798307 0.0980597 1.49487 -2.48904 -2.01575 
89 1 0.398793 0.784208 0.00652193 1.78846 1.83098 -0.726967 
92 1 0.398214 0.898993 0.101104 1.75984 2.01607 -3.39165 
186 1 0.300173 0.909147 0.190982 3.91315 -1.92276 -1.52401 
189 1 0.387896 0.806504 0.201837 4.51603 7.88377 4.31838 
90 1 0.497376 0.885595 0.00696551 2.41518 1.22841 -0.962557 
91 1 0.488498 0.79593 0.10772 -3.19537 -0.181136 -5.72203 
190 1 0.494409 0.899026 0.20254 -0.578592 0.572271 -1.05515 
11 1 0.501962 0.996871 0.103802 -1.33551 4.45118 -4.06673 
13 1 0.592016 0.993207 0.00469864 -3.56972 1.69299 1.72697 
15 1 0.692526 0.999703 0.0908649 2.61397 0.722647 -1.08955 
113 1 0.599989 0.992414 0.19346 -6.85143 1.13513 -0.525916 
93 1 0.60314 0.798248 0.00313603 -2.48718 -0.110763 3.41704 
94 1 0.705974 0.896962 0.000590535 2.08107 0.0481572 -2.06269 
95 1 0.703851 0.800099 0.101658 0.088494 -1.85191 3.40605 
96 1 0.59594 0.895787 0.0941048 -1.0912 -2.48602 -3.32125 
193 1 0.60053 0.801191 0.189637 3.13046 -0.609339 -2.24274 
194 1 0.698887 0.893472 0.205477 0.466095 -1.47203 -2.17821 
19 1 0.905927 0.989317 0.0900089 2.61589 3.77893 -1.85612 
117 1 0.806273 0.995753 0.202356 1.73133 -0.875587 0.624971 
99 1 0.901782 0.807306 0.098517 -3.06557 -0.0171045 0.272102 
100 1 0.799156 0.905368 0.102164 -2.49518 0.119121 -1.8286 
197 1 0.797884 0.804989 0.19457 -1.88362 -3.07599 -0.642865 
198 1 0.900498 0.9034 0.19267 -3.97735 -0.423276 -1.53634 
103 1 0.0935258 0.00812816 0.293815 -0.374413 5.10375 -0.864994 
108 1 0.204273 0.0987132 0.289888 0.320347 1.648 3.94276 
123 1 0.0978256 0.205018 0.297566 1.55695 2.51412 3.27155 
202 1 0.102857 0.0984744 0.395061 -2.39437 0.743449 2.12802 
221 1 0.00389215 0.195748 0.390538 3.31344 -5.42966 -1.50842 
225 1 0.195573 0.197129 0.390515 -4.20922 -4.23195 -0.300376 
203 1 0.104606 0.00830685 0.494274 -0.0783539 3.6179 2.19264 
204 1 0.00559579 0.102348 0.493759 1.19546 1.20605 0.891249 
208 1 0.207155 0.104602 0.498292 1.99804 -1.54547 -1.1248 
223 1 0.09925 0.195601 0.492413 6.09193 -1.52468 4.91706 
107 1 0.290439 0.00760554 0.296883 -4.01781 0.164306 0.9305 
112 1 0.398605 0.0934169 0.30296 -0.27259 -2.24888 0.41781 
127 1 0.299535 0.197188 0.308763 -0.168272 1.08943 -4.49463 
206 1 0.30605 0.10256 0.401468 -0.947848 -3.99438 2.29769 
229 1 0.400344 0.200078 0.392806 -1.74404 -1.93667 -0.546142 
207 1 0.300839 0.00125988 0.499451 1.83563 -0.359987 -0.95986 
231 1 0.49701 0.196418 0.499315 0.770969 2.07564 -2.18398 
111 1 0.506255 0.00047229 0.300969 -0.376942 -0.322413 1.1696 
116 1 0.603972 0.0996973 0.292265 0.0309094 -0.480679 -2.92737 
131 1 0.500075 0.199513 0.300802 -0.071652 -1.49563 0.171679 
135 1 0.701362 0.196703 0.298503 -3.71147 2.29082 -2.6569 
210 1 0.503709 0.105495 0.397085 -1.98174 1.95343 1.14958 
214 1 0.692219 0.10045 0.404574 -2.04938 -0.619095 -5.46716 
233 1 0.601175 0.192413 0.402538 0.349488 -2.33334 -0.436501 
104 1 0.996878 0.106728 0.288583 2.18554 3.36994 1.35786 
120 1 0.797575 0.0870592 0.302382 1.24266 -1.06639 0.165056 
139 1 0.892754 0.198788 0.30277 -6.55282 2.12916 -0.505926 
217 1 0.795554 0.00315516 0.404024 1.0316 2.98209 2.39518 
218 1 0.90089 0.0944987 0.395404 -2.61884 0.788139 -1.59708 
237 1 0.800056 0.19732 0.405597 -3.76396 -1.75335 -3.33369 
219 1 0.906737 0.00483565 0.495078 -1.34842 -0.955067 1.85174 
220 1 0.804448 0.0954929 0.497008 1.34106 0.561889 -2.67903 
128 1 0.202326 0.297081 0.294201 0.471701 1.76337 1.00232 
143 1 0.104417 0.397627 0.303731 -0.980502 1.36003 -2.48776 
222 1 0.0965637 0.305849 0.398039 -1.87493 -1.20121 -2.84557 
245 1 0.203118 0.398686 0.402128 -2.88412 -2.86346 -0.83461 
148 1 0.198099 0.497269 0.307358 -1.77339 2.28462 1.34698 
228 1 0.186926 0.295731 0.49948 -0.774693 1.24364 -1.86293 
243 1 0.0969672 0.40351 0.494568 1.49599 -0.23666 7.88118 
132 1 0.392711 0.29382 0.298346 -2.97819 1.87598 -0.713674 
147 1 0.302128 0.399191 0.305108 -0.195609 -1.59302 1.37149 
226 1 0.289852 0.296514 0.405351 -1.24801 -3.30788 0.494442 
249 1 0.406132 0.39398 0.399881 3.36066 4.06074 -3.22902 
151 1 0.490161 0.393538 0.303849 1.29551 3.39955 -2.52407 
230 1 0.498823 0.290131 0.397389 0.910543 -1.42524 -1.55762 
246 1 0.299447 0.497393 0.408988 1.35403 -2.77357 2.85828 
232 1 0.396106 0.300348 0.498774 0.617122 -1.64889 0.703902 
252 1 0.403961 0.496599 0.494702 -3.7316 0.00919733 -1.87758 
136 1 0.598636 0.290464 0.299888 -2.84439 -1.72383 3.44133 
155 1 0.691323 0.406381 0.307684 -1.58821 -2.01371 -1.4786 
234 1 0.700492 0.295907 0.3985 1.14486 -0.795119 -1.86505 
253 1 0.593864 0.389689 0.399733 -0.649361 1.37715 -3.64528 
156 1 0.597118 0.493256 0.288629 1.34493 0.487158 -0.0759445 
250 1 0.505186 0.49609 0.395057 1.1455 0.135503 0.766666 
254 1 0.698124 0.498547 0.397398 -0.627462 -1.41283 3.77831 
256 1 0.602056 0.49814 0.496761 6.04325 -1.0022 0.80834 
124 1 0.998056 0.30246 0.301798 0.297556 0.560048 -0.0816979 
241 1 0.995097 0.405964 0.399884 1.41768 2.77042 -1.42574 
140 1 0.797444 0.301052 0.30512 -2.02449 1.95367 -1.00293 
159 1 0.904646 0.403882 0.303175 1.99249 -3.14611 -3.57727 
238 1 0.895881 0.293062 0.402565 2.14548 0.900035 -0.61674 
257 1 0.799586 0.402446 0.396801 -4.31531 1.59108 3.43218 
224 1 0.998753 0.299718 0.49489 -0.861013 -1.14414 -0.731643 
240 1 0.803158 0.291815 0.497655 7.10776 1.79579 -2.54458 
144 1 0.00197896 0.507343 0.311387 0.172248 0.388896 0.659867 
163 1 0.10332 0.605003 0.311339 0.49645 2.33387 1.76973 
168 1 0.202009 0.702151 0.314879 2.95464 -0.150194 1.20259 
242 1 0.100136 0.503852 0.406916 -1.01397 1.25221 3.48241 
261 1 0.00182512 0.605523 0.407105 -0.404452 4.62293 2.24772 
262 1 0.0932423 0.706817 0.408774 -0.103958 3.6868 0.787358 
265 1 0.201783 0.6078 0.410183 -0.304066 2.67573 1.37462 
268 1 0.208776 0.699598 0.497221 0.949397 3.24973 -5.18903 
152 1 0.399364 0.505288 0.307639 -0.51454 0.542579 -1.24112 
167 1 0.298555 0.597542 0.311723 -2.29663 1.85948 -0.315431 
172 1 0.400754 0.704131 0.300567 1.15417 -2.71796 -0.453282 
266 1 0.309166 0.697597 0.412676 2.78201 -3.14174 0.151138 
269 1 0.403203 0.600691 0.403564 -0.0021192 -0.470417 3.04539 
171 1 0.500959 0.601062 0.297121 1.63394 5.62023 -0.397324 
175 1 0.703323 0.603282 0.299155 3.6219 1.5938 1.52305 
176 1 0.594898 0.706053 0.293289 -3.03909 5.47323 1.86253 
270 1 0.501886 0.692741 0.397349 1.11303 1.2538 1.68413 
273 1 0.602111 0.599303 0.394207 5.36504 3.68891 4.87392 
274 1 0.702068 0.706182 0.399293 -4.08268 1.5211 -0.0674861 
271 1 0.504834 0.599463 0.493141 2.7138 -1.11741 -3.379 
275 1 0.706791 0.605626 0.495596 3.35705 -1.24908 0.495597 
276 1 0.599083 0.696233 0.49924 2.42581 2.65203 -0.0517706 
164 1 0.999911 0.712568 0.300736 1.9417 0.136261 0.0397996 
160 1 0.800405 0.506118 0.300172 2.91727 -1.07769 0.625361 
179 1 0.906042 0.602342 0.305076 0.108677 -0.480978 -0.900737 
180 1 0.808599 0.713086 0.305178 0.803347 2.93567 1.4674 
258 1 0.901036 0.508826 0.400466 -2.17962 2.77045 -0.764102 
277 1 0.803372 0.60833 0.395448 -6.56288 -1.17291 0.679736 
278 1 0.904485 0.703987 0.39972 -0.0614136 4.80436 0.52502 
260 1 0.797484 0.501858 0.495798 0.799592 1.01989 -1.66281 
279 1 0.899739 0.595315 0.498903 -2.72233 -0.899378 -2.46481 
280 1 0.814123 0.706532 0.497684 5.2473 0.219289 -1.80813 
205 1 0.196989 0.997088 0.399287 0.381327 0.676554 0.165417 
183 1 0.101985 0.797519 0.302425 -5.58702 -0.267891 4.85984 
184 1 0.00120026 0.897105 0.301567 4.13227 -0.351972 0.480955 
188 1 0.194983 0.910382 0.293236 -0.380447 2.03843 -0.654402 
281 1 0.00304147 0.803364 0.397926 3.18328 -2.54823 0.733791 
282 1 0.0966268 0.898113 0.392587 -2.24876 -0.0361362 -1.63866 
285 1 0.198739 0.810907 0.399133 0.297127 1.20349 -1.65806 
284 1 0.0087289 0.906088 0.498871 -0.689413 1.69207 -2.72455 
288 1 0.187711 0.906677 0.492496 5.36787 3.46021 1.60242 
209 1 0.4087 0.994393 0.399179 -3.65855 -1.94092 -0.39635 
187 1 0.299602 0.807778 0.30388 1.35992 -2.68275 0.0225879 
192 1 0.386965 0.904875 0.303884 1.82803 -0.119289 1.15267 
286 1 0.297455 0.912857 0.400968 0.378493 -0.823845 -0.126166 
289 1 0.393555 0.804479 0.406489 2.00811 -0.0973912 -2.22197 
191 1 0.496906 0.79856 0.304481 3.29792 -0.677262 -1.46094 
115 1 0.69805 0.99788 0.294718 -2.81786 1.65914 0.534782 
213 1 0.607093 0.998605 0.4033 -4.33287 -1.45295 -2.8631 
195 1 0.70028 0.802156 0.304618 4.69983 0.19053 -0.486339 
196 1 0.592645 0.898112 0.288489 -0.11366 0.323943 -1.86641 
290 1 0.503491 0.896985 0.3957 3.59703 1.71953 -0.0368137 
293 1 0.597366 0.796032 0.399696 0.49001 1.6717 1.07668 
294 1 0.692637 0.902447 0.399466 1.42869 -2.65673 0.965362 
291 1 0.502033 0.795821 0.4941 0.181945 -0.862749 -0.506693 
295 1 0.69409 0.80678 0.495663 -0.0872754 0.355863 -2.95497 
201 1 0.997728 0.998698 0.400553 -1.33144 1.43387 -2.49414 
119 1 0.909731 0.996394 0.297314 5.77606 0.576756 4.58902 
199 1 0.904068 0.815745 0.301724 -0.190586 3.51606 -0.607315 
200 1 0.804278 0.901845 0.306319 -2.3907 0.92271 -4.8698 
297 1 0.803774 0.802426 0.397932 -1.58589 -1.06437 0.0592287 
298 1 0.898082 0.906101 0.408541 -2.98407 -1.8114 -3.51243 
299 1 0.903836 0.813805 0.49682 1.19685 -1.18507 2.45722 
300 1 0.79732 0.899389 0.494161 2.58777 0.26314 -5.66747 
302 1 0.105694 0.092857 0.603742 -2.28614 1.02162 -1.59655 
305 1 0.202545 0.00540158 0.602626 2.13265 -2.13666 0.25674 
308 1 0.205767 0.097593 0.705279 -4.6404 2.11054 -4.26997 
321 1 0.00369992 0.193696 0.601092 -1.3046 2.33118 0.777852 
323 1 0.100606 0.199024 0.700269 1.35328 2.05375 4.50107 
325 1 0.195967 0.193329 0.599024 -0.0210845 -1.90128 -2.65121 
212 1 0.400512 0.0998173 0.50618 1.49594 1.56608 2.26165 
227 1 0.292803 0.20265 0.505888 2.59009 -1.85994 3.68152 
306 1 0.301885 0.100453 0.598685 4.96747 -2.63565 2.75149 
307 1 0.299581 0.00839345 0.705606 -0.692482 1.94579 -2.31043 
312 1 0.404115 0.0953348 0.701787 -0.318575 -0.333916 -0.744815 
327 1 0.295337 0.192106 0.706282 -2.32774 -3.48383 -1.45285 
329 1 0.401712 0.205059 0.605268 1.28209 4.26624 2.82909 
310 1 0.499487 0.100917 0.601935 7.88967 -2.22001 4.07384 
331 1 0.498761 0.197273 0.706862 0.881601 -1.82607 -3.75667 
211 1 0.500521 0.00425325 0.504852 0.493517 0.573963 -3.39079 
216 1 0.595998 0.101221 0.507374 4.25353 1.44987 0.683839 
235 1 0.701617 0.190711 0.501581 1.89946 0.716135 -3.24377 
313 1 0.597288 0.00316757 0.600503 0.841131 2.90382 1.64328 
314 1 0.694883 0.0989424 0.595082 2.69212 0.891814 -0.151931 
315 1 0.7036 0.00211803 0.703604 3.1457 -1.63595 1.82067 
316 1 0.598914 0.102878 0.709948 -0.958933 0.109785 -3.08706 
333 1 0.601575 0.199612 0.604164 -0.252005 1.18246 -0.590918 
335 1 0.697138 0.200835 0.697356 -0.236892 -5.7194 1.81949 
304 1 0.99813 0.0972917 0.702595 0.45558 -2.51853 -1.76147 
239 1 0.897548 0.186416 0.508478 -5.0836 2.54502 1.02079 
317 1 0.803259 0.0113418 0.598698 1.00658 2.0347 -0.601866 
318 1 0.904479 0.097969 0.612967 0.971064 2.82773 2.53404 
320 1 0.795709 0.101308 0.70078 0.860724 -1.28063 -4.86684 
337 1 0.798302 0.195601 0.598585 2.25657 2.03616 -2.17788 
339 1 0.903368 0.202877 0.69738 -0.677371 0.966315 -1.97789 
322 1 0.092654 0.299441 0.598418 -0.821038 0.132555 -0.622479 
324 1 0.00106029 0.297808 0.703002 0.0347362 0.496737 3.0813 
328 1 0.20205 0.297019 0.688341 3.30756 2.76315 1.05716 
341 1 0.00302545 0.396013 0.601955 -2.4054 -0.363664 1.98506 
343 1 0.105668 0.395368 0.695099 -2.59332 -0.0807258 4.17169 
345 1 0.198964 0.399704 0.593486 2.01961 0.207152 2.39749 
348 1 0.198081 0.491995 0.691075 -4.14071 0.634073 -3.88982 
247 1 0.291617 0.395247 0.505859 0.5247 -2.82775 2.69711 
326 1 0.295619 0.290337 0.59768 -0.939392 -1.98126 5.86492 
332 1 0.395546 0.290932 0.71172 0.092422 0.716754 0.888255 
347 1 0.293669 0.393692 0.693911 -2.09571 -4.52954 1.98641 
349 1 0.40195 0.393729 0.603866 -2.56054 4.9616 1.66098 
346 1 0.302148 0.49964 0.599554 -0.441311 -0.602007 -0.147672 
352 1 0.400634 0.500047 0.703064 -1.14391 0.368366 1.54115 
350 1 0.496009 0.494615 0.607916 -2.58161 -1.25061 2.6356 
236 1 0.597991 0.297541 0.5023 2.31845 -1.57934 -1.39556 
251 1 0.500215 0.395464 0.501174 -5.4992 -3.54603 2.03269 
255 1 0.703408 0.394357 0.506569 2.92549 -2.31326 0.252524 
330 1 0.503685 0.300963 0.601351 -2.26161 2.23206 -1.22828 
334 1 0.710594 0.2953 0.601075 0.699292 3.84 -2.82691 
336 1 0.602022 0.304529 0.694257 -0.287822 -2.58741 -2.31086 
351 1 0.5059 0.407687 0.706122 -0.4094 2.37551 1.8338 
353 1 0.601144 0.394623 0.599609 -2.73519 -1.25936 0.230178 
355 1 0.70715 0.402924 0.69517 -0.131477 -3.50115 6.72623 
354 1 0.704983 0.495948 0.594623 -3.3198 0.321117 -0.547702 
259 1 0.893798 0.397721 0.503977 -2.59974 2.28957 4.54894 
338 1 0.901934 0.294041 0.590072 0.113346 2.9622 -3.37669 
340 1 0.798302 0.298407 0.695872 -1.98477 -3.04168 4.0953 
357 1 0.803638 0.399578 0.602942 1.46297 1.61149 -2.40816 
359 1 0.897292 0.3952 0.695432 -2.55349 -1.46868 2.19519 
358 1 0.899076 0.499879 0.596646 3.92691 3.27792 3.08619 
360 1 0.801112 0.499465 0.701589 -0.0645905 1.65782 0.258851 
244 1 0.00295639 0.500441 0.500397 -0.474325 -0.373154 -3.67203 
248 1 0.198948 0.506996 0.50283 -0.889197 -2.13261 1.22735 
263 1 0.0984328 0.59648 0.504306 3.80756 1.03906 0.19073 
342 1 0.103103 0.507121 0.600129 1.04413 0.582197 0.645668 
344 1 0.0021226 0.50287 0.69206 -2.62902 0.220611 6.6967 
362 1 0.0999226 0.70114 0.595891 -1.04526 -2.53993 -0.130448 
363 1 0.0976288 0.602157 0.690856 4.71685 -1.32357 0.0560737 
364 1 0.00204612 0.699944 0.696216 2.83464 0.644142 4.36376 
365 1 0.202137 0.602539 0.600384 -1.26487 -7.10259 -3.29673 
368 1 0.197866 0.710824 0.699004 4.74462 -1.42502 2.4651 
267 1 0.300134 0.595902 0.510126 -2.01106 -2.39684 3.4443 
272 1 0.4059 0.703233 0.501659 1.78243 -2.26304 -1.74413 
366 1 0.297647 0.704605 0.599225 -0.599446 3.21239 -4.25346 
367 1 0.298323 0.599435 0.694762 1.40134 0.740673 2.2334 
369 1 0.400112 0.599075 0.601465 -3.07657 -0.603528 6.09856 
372 1 0.406873 0.699179 0.698572 -1.26138 -2.76945 -0.978993 
356 1 0.605812 0.501734 0.697332 -0.297967 2.43762 4.47493 
370 1 0.501331 0.699086 0.599764 0.727147 -1.28939 2.40639 
371 1 0.501622 0.602895 0.695989 -2.49346 0.276841 -0.713047 
373 1 0.610282 0.594399 0.593738 -2.4197 -2.58121 -1.16031 
374 1 0.701635 0.707677 0.586755 1.46091 -3.5343 -1.1792 
375 1 0.705658 0.599094 0.691423 9.44272 -4.70587 3.31869 
376 1 0.606468 0.691316 0.69393 -2.54755 -1.0455 0.0900871 
264 1 0.99303 0.702333 0.501761 5.31569 0.384843 -1.72601 
361 1 0.995499 0.599607 0.589681 5.36406 -3.83964 1.33296 
377 1 0.803333 0.598704 0.590802 0.30253 1.02253 0.432515 
378 1 0.911103 0.698421 0.595947 4.09959 -2.19096 -4.85466 
379 1 0.903431 0.597523 0.694382 -4.26335 -4.67679 0.789663 
380 1 0.809899 0.698387 0.697415 0.639422 3.19835 1.33539 
303 1 0.0967501 0.998979 0.698446 5.54908 0.298735 -0.696561 
283 1 0.102307 0.804883 0.501896 2.01908 2.37975 -2.10415 
381 1 0.00501655 0.800888 0.598864 -0.972562 1.20317 -1.92795 
382 1 0.0984117 0.910038 0.600652 -0.872608 -3.10834 -3.96789 
383 1 0.0999015 0.810705 0.694306 2.62517 -1.63764 -1.24321 
385 1 0.204496 0.803685 0.599272 0.40884 -3.27984 2.61273 
388 1 0.21066 0.908638 0.697625 -4.94027 0.112451 2.50985 
309 1 0.395754 0.998799 0.600223 -0.144824 -5.03705 -1.34225 
287 1 0.298601 0.80318 0.500991 -4.592 -2.50418 -2.75055 
292 1 0.403494 0.900921 0.503846 -1.46587 1.62316 3.70803 
386 1 0.302531 0.906948 0.601289 -0.248421 0.741796 -0.419249 
387 1 0.314089 0.803368 0.705934 0.124875 -3.67106 -3.71902 
389 1 0.400332 0.804588 0.600566 2.30044 -1.16155 -1.87742 
392 1 0.39957 0.907034 0.707583 0.806615 -0.420967 -0.0743582 
390 1 0.498892 0.903193 0.607537 -0.919365 -0.407206 3.11195 
391 1 0.499565 0.805971 0.706933 0.838898 2.23898 1.69055 
215 1 0.704658 0.994196 0.507271 1.0142 -0.910529 0.0193807 
311 1 0.503983 0.999769 0.703091 -0.559642 0.937878 1.81299 
296 1 0.599739 0.899957 0.505923 -0.566492 2.31321 -0.90627 
393 1 0.591303 0.790377 0.597807 1.78215 -0.73502 5.14679 
394 1 0.70691 0.893602 0.595933 4.68443 1.03019 -3.53296 
395 1 0.698031 0.789149 0.694099 1.07753 0.234848 -0.0969789 
396 1 0.606722 0.894522 0.702348 3.84093 1.28201 2.65579 
301 1 0.997487 1.00002 0.599704 0.0918568 0.677324 2.62256 
319 1 0.896703 0.994302 0.703604 0.695511 -1.839 -4.02599 
384 1 0.992783 0.901782 0.695203 2.52136 -2.14869 1.66716 
397 1 0.80904 0.795506 0.602029 -0.958482 -0.117921 2.40123 
398 1 0.897201 0.906449 0.600382 0.0943702 1.16109 -2.59937 
399 1 0.910106 0.790279 0.698897 -0.529726 -1.43829 -3.69284 
400 1 0.794357 0.889004 0.694314 5.57733 0.870179 2.77781 
21 1 0.000880362 0.205069 0.998625 -2.91524 0.47589 0.0843343 
402 1 0.0955703 0.102475 0.806192 4.05216 0.670287 -4.95023 
404 1 0.00375257 0.108993 0.90637 -0.0969028 -0.260607 2.23723 
408 1 0.199233 0.0951101 0.904298 -0.517183 -1.69949 -1.95322 
423 1 0.0960137 0.205406 0.906214 -3.98735 1.99442 -0.580192 
425 1 0.197173 0.209316 0.805017 1.64054 2.74864 0.22258 
29 1 0.399285 0.192287 0.998209 -3.84597 3.38705 1.28954 
406 1 0.295708 0.099536 0.812933 1.78404 -3.09885 -3.09621 
412 1 0.400313 0.0982952 0.904611 1.35852 -2.99445 0.687703 
427 1 0.298361 0.204229 0.899911 -1.33918 -4.0619 0.246741 
429 1 0.389201 0.197765 0.798664 1.68014 7.63896 3.11146 
410 1 0.498171 0.0964616 0.807308 1.73303 -1.45588 -1.93207 
10 1 0.506535 0.104423 0.998435 1.30898 -5.94854 1.58389 
411 1 0.50983 0.000774675 0.905112 -1.32931 -0.630509 -2.08662 
413 1 0.595968 0.00167261 0.801096 -2.50761 0.218112 0.345533 
414 1 0.700554 0.104722 0.80008 -2.16997 -0.480482 1.85479 
415 1 0.686985 0.00848944 0.903496 -0.585619 0.521273 -1.12358 
416 1 0.598039 0.10873 0.902919 -0.507427 -2.88709 -0.730416 
431 1 0.505888 0.201809 0.894915 -1.64958 -3.43912 0.556827 
433 1 0.595318 0.202095 0.803605 -0.623305 -0.376792 -1.03073 
435 1 0.69391 0.20904 0.903776 2.19638 -0.376224 -0.704039 
17 1 0.799743 0.000427845 0.994944 -3.13585 1.20529 -0.613447 
401 1 0.993896 0.00247266 0.798742 -1.7242 -2.1774 -0.993683 
421 1 0.991127 0.198415 0.801379 -3.74657 -0.509549 0.107957 
418 1 0.893346 0.0982658 0.797818 -0.288146 -2.94237 -3.20255 
419 1 0.898344 0.00343605 0.893312 -0.630876 0.139681 -3.91047 
420 1 0.788132 0.108029 0.901928 -1.83669 -2.4158 -4.4071 
437 1 0.794355 0.204557 0.793388 -0.609623 -2.81837 -1.14674 
439 1 0.892833 0.199491 0.904321 -0.966936 2.78296 1.44504 
22 1 0.0920572 0.303878 0.999033 -4.30863 -1.62978 -3.39393 
422 1 0.0992415 0.30068 0.793925 -1.37543 -4.62095 0.643851 
428 1 0.195573 0.308626 0.90905 0.278192 -1.07378 1.9567 
443 1 0.0990568 0.399953 0.899799 -1.35406 -1.71769 -3.97822 
445 1 0.199892 0.392813 0.797065 -3.71424 -0.884504 1.28829 
442 1 0.101804 0.493709 0.790243 -6.79874 -1.55111 3.51357 
448 1 0.191179 0.494971 0.896607 0.990295 -1.13134 -1.04761 
49 1 0.397662 0.410555 0.999096 1.79805 -2.9529 -0.0749525 
30 1 0.492157 0.306229 0.980415 0.388707 -1.09478 -3.39568 
46 1 0.281765 0.499526 0.99327 3.04296 -0.508955 3.20566 
426 1 0.298831 0.300414 0.79886 1.7086 -4.58065 -2.00577 
432 1 0.399934 0.302638 0.903822 -0.984895 -2.41533 -2.94148 
447 1 0.301982 0.407306 0.906171 5.21345 2.55041 1.4282 
449 1 0.399039 0.399371 0.800439 -2.44714 0.0481635 0.134941 
451 1 0.495027 0.412626 0.894968 0.0373532 1.35649 -4.13113 
446 1 0.29013 0.492463 0.788022 -0.837991 7.01485 3.86068 
34 1 0.702897 0.315335 0.995439 3.72338 -1.3574 3.01271 
430 1 0.502375 0.302031 0.806779 0.0771065 -2.24191 -0.243874 
434 1 0.695453 0.304893 0.80066 -4.19287 2.89258 1.5559 
436 1 0.593226 0.314154 0.899946 -0.00444146 -0.0843968 0.0247762 
453 1 0.605649 0.403108 0.796745 -2.9072 -0.205955 -0.105126 
455 1 0.706052 0.406636 0.897997 -3.62661 -0.0518213 -2.88387 
454 1 0.705615 0.496053 0.796861 -2.0474 -2.42991 -1.5042 
57 1 0.799625 0.410403 0.996852 4.81904 -2.25863 -0.878804 
424 1 0.992479 0.297651 0.898242 -1.71534 -1.5538 -0.0985572 
441 1 0.996613 0.400006 0.798015 -2.161 -0.467598 -0.967225 
438 1 0.892447 0.295419 0.793636 1.9042 -1.05821 -1.14062 
440 1 0.802301 0.302218 0.90103 -1.01171 1.92983 -3.79214 
457 1 0.800082 0.401018 0.798485 -2.97099 -2.70131 -7.06764 
459 1 0.899717 0.40068 0.89705 -1.11497 1.52473 0.0577073 
444 1 0.997011 0.499007 0.903286 0.0114751 -1.21951 -0.118088 
458 1 0.903261 0.494678 0.797443 2.96016 2.07066 0.451181 
62 1 0.102568 0.702515 0.993459 -3.75952 -2.10675 -0.639106 
65 1 0.192184 0.601235 0.993774 2.06522 -2.79302 -0.962789 
461 1 0.00414565 0.597512 0.793339 3.90424 2.4607 2.90284 
462 1 0.102123 0.697027 0.793573 -2.15263 -2.05396 3.87137 
463 1 0.0991741 0.592499 0.894513 1.42023 -1.16659 2.32754 
464 1 0.00614786 0.698545 0.891815 0.348326 0.3332 2.79217 
465 1 0.194348 0.591938 0.792496 2.14037 -0.879084 -1.86444 
468 1 0.206479 0.703557 0.900699 -1.04172 1.93167 5.44383 
66 1 0.307102 0.692768 0.993441 -3.43516 -3.59017 -2.22659 
452 1 0.401647 0.511391 0.898708 1.41974 -1.59987 3.09706 
466 1 0.30181 0.692236 0.799311 -0.627416 2.53983 -1.20339 
467 1 0.292105 0.598035 0.89277 1.93926 -1.39737 -0.153311 
469 1 0.392095 0.599029 0.793034 -2.07343 -1.19515 5.40677 
472 1 0.407769 0.694364 0.895856 2.90111 0.0895453 3.2165 
471 1 0.497016 0.604397 0.900789 1.46867 1.36352 0.233207 
450 1 0.503703 0.503998 0.799121 3.7776 1.76873 -0.409296 
456 1 0.596993 0.505366 0.899692 -3.93739 -3.10156 -1.44191 
470 1 0.508201 0.697585 0.789554 0.383494 -1.39566 3.73505 
473 1 0.59711 0.597182 0.803395 3.53694 -1.45518 -0.392132 
474 1 0.699481 0.697197 0.802068 2.39175 4.93905 0.784965 
475 1 0.696741 0.599236 0.899352 -3.15439 -2.50852 0.640531 
476 1 0.604619 0.70277 0.898359 0.734947 -3.33404 -0.73931 
460 1 0.802054 0.503048 0.902866 -0.569114 0.493128 -3.93654 
477 1 0.795935 0.597969 0.795819 -2.59877 0.747472 -1.02053 
478 1 0.905438 0.689293 0.801982 -2.32984 -1.38208 2.75906 
479 1 0.902863 0.597258 0.905005 2.00707 2.71981 -0.67854 
480 1 0.800103 0.692578 0.897182 -1.82868 0.503904 4.01459 
82 1 0.0975076 0.897885 0.998874 -3.42936 1.59291 -0.0459536 
403 1 0.0995247 0.993073 0.901481 -2.48333 3.10494 -0.808148 
405 1 0.206763 0.992803 0.802442 2.7127 -7.33728 3.14116 
481 1 0.00445836 0.802745 0.803498 1.01555 -2.04648 -1.58386 
482 1 0.100102 0.900312 0.793313 3.851 2.89715 4.54283 
483 1 0.105881 0.80495 0.896253 -0.632816 5.41592 -1.8566 
485 1 0.201789 0.80413 0.801183 -0.926317 -0.519698 2.65827 
488 1 0.207906 0.898992 0.90424 2.45334 -0.824979 0.218578 
9 1 0.402868 1.00005 0.994579 1.19424 4.35102 -2.04221 
86 1 0.302233 0.896252 0.997347 -1.55056 3.19247 -1.75608 
407 1 0.305557 0.998029 0.894072 -0.886056 0.858975 -0.330983 
409 1 0.40287 0.991764 0.802356 0.753297 1.24139 0.460347 
486 1 0.307526 0.894166 0.815768 -3.21707 3.05652 0.191678 
487 1 0.304104 0.793622 0.898446 -1.85751 2.5265 -0.493729 
489 1 0.402459 0.792313 0.799533 -1.58983 0.774207 4.59279 
492 1 0.404064 0.885267 0.906777 0.607799 -0.423333 3.20767 
490 1 0.50238 0.901402 0.809957 -3.1863 -0.0295778 -4.29909 
491 1 0.50605 0.798617 0.908473 0.506803 -0.398787 -0.369112 
493 1 0.598865 0.796683 0.801668 -0.319551 1.64522 -2.92246 
494 1 0.700993 0.899629 0.801051 -2.32635 -1.12796 0.138258 
495 1 0.701886 0.798294 0.901313 -2.45493 4.21611 -2.50889 
496 1 0.605116 0.893516 0.900474 -2.42768 -1.56208 0.392326 
1 1 0.997863 0.996147 0.995168 1.95411 -2.46883 -0.568768 
81 1 0.999028 0.799389 0.997648 -0.147464 -3.32749 3.2346 
97 1 0.802248 0.792613 0.99991 3.84473 -1.2956 2.92572 
98 1 0.90383 0.894464 1.00059 -0.0656953 1.60392 5.09023 
417 1 0.798093 0.999995 0.803433 -0.94208 2.08504 0.684021 