ITEM: TIMESTEP
0
ITEM: NUMBER OF ATOMS
500
ITEM: BOX BOUNDS pp pp pp
0 18.144
0 18.144
0 18.144
ITEM: ATOMS id type xs ys zs vx vy vz 
1 1 0 0 0 -0.214107 -3.42256 0.53626 
2 1 0.1 0.1 0 -1.19435 0.922812 -0.520163 
3 1 0.1 0 0.1 1.38833 -1.74388 2.18125 
4 1 0 0.1 0.1 1.58527 -2.1249 0.796551 
5 1 0.2 0 0 0.380069 -0.301776 0.440148 
8 1 0.2 0.1 0.1 1.66798 -0.60814 0.161822 
11 1 0 0.2 0 -0.650113 0.0168782 2.10739 
13 1 0.1 0.2 0.1 -0.429846 -3.62941 0.408001 
15 1 0.2 0.2 0 1.57531 0.391664 -0.0329644 
26 1 0 0 0.2 0.731228 -0.310174 0.267145 
27 1 0.1 0.1 0.2 -1.31223 -1.81783 -3.24245 
30 1 0.2 0 0.2 3.49135 1.99836 1.23737 
36 1 0 0.2 0.2 1.79907 0.0485341 1.70899 
40 1 0.2 0.2 0.2 -0.821644 -0.811012 0.860614 
6 1 0.3 0.1 0 0.0445526 -3.0745 -0.54048 
7 1 0.3 0 0.1 -0.796638 -2.91713 -1.04372 
9 1 0.4 0 0 -3.14926 3.80547 -0.139278 
10 1 0.4 0.1 0.1 0.230736 2.51058 -1.20168 
17 1 0.3 0.2 0.1 1.55221 2.49293 3.05753 
19 1 0.4 0.2 0 -0.716622 -1.90752 0.190098 
31 1 0.3 0.1 0.2 0.265241 -2.36458 0.346252 
34 1 0.4 0 0.2 -0.121234 -0.928364 0.00874585 
44 1 0.4 0.2 0.2 -2.69985 1.19375 0.917366 
12 1 0.1 0.3 0 0.259311 1.40142 1.62008 
14 1 0 0.3 0.1 6.44314 0.115707 -2.26108 
18 1 0.2 0.3 0.1 1.39983 -1.24907 -0.425718 
21 1 0 0.4 0 -0.92085 -0.522278 -0.0986347 
22 1 0.1 0.4 0.1 2.06175 0.118063 0.315772 
23 1 0.2 0.4 0 1.52726 1.04109 -0.592656 
37 1 0.1 0.3 0.2 1.34298 1.87763 3.75589 
46 1 0 0.4 0.2 1.34878 -0.211554 0.251765 
48 1 0.2 0.4 0.2 -0.00439132 2.07296 1.16551 
16 1 0.3 0.3 0 -0.381468 0.0748257 -0.356782 
20 1 0.4 0.3 0.1 1.01123 1.97895 -1.46546 
24 1 0.3 0.4 0.1 -0.988051 1.46985 0.39322 
25 1 0.4 0.4 0 2.25247 2.51756 0.854134 
41 1 0.3 0.3 0.2 -2.10662 0.148416 -1.37485 
50 1 0.4 0.4 0.2 2.31238 -0.357791 1.69937 
28 1 0.1 0 0.3 -1.50416 0.0596965 0.129094 
29 1 0 0.1 0.3 -2.08141 1.10344 1.21461 
33 1 0.2 0.1 0.3 0.0869269 -0.359984 2.54968 
38 1 0.1 0.2 0.3 3.45229 1.68027 0.599431 
51 1 0 0 0.4 3.55214 -0.468042 -0.574681 
52 1 0.1 0.1 0.4 -4.17467 -2.89973 -1.02923 
53 1 0.2 0 0.4 -2.59162 1.62141 2.96144 
56 1 0 0.2 0.4 1.13888 0.901906 -0.194687 
58 1 0.2 0.2 0.4 -1.39417 -1.26524 2.46539 
32 1 0.3 0 0.3 1.03489 -0.890455 1.42487 
35 1 0.4 0.1 0.3 1.47158 -1.75179 0.32243 
42 1 0.3 0.2 0.3 -2.15208 -3.03078 1.1277 
54 1 0.3 0.1 0.4 -0.977555 2.628 -1.81435 
55 1 0.4 0 0.4 2.82917 -1.8659 -0.619028 
60 1 0.4 0.2 0.4 3.45063 -0.337634 -0.0752594 
39 1 0 0.3 0.3 2.11177 -1.03708 1.61521 
43 1 0.2 0.3 0.3 0.0939404 2.28014 1.59479 
47 1 0.1 0.4 0.3 -1.81257 -2.25357 -1.69591 
57 1 0.1 0.3 0.4 0.111295 -0.89131 -0.343665 
61 1 0 0.4 0.4 -2.15287 -1.21862 -0.365448 
62 1 0.2 0.4 0.4 -0.105099 0.770238 3.18893 
45 1 0.4 0.3 0.3 1.84244 2.93992 0.519954 
49 1 0.3 0.4 0.3 -3.27172 3.11636 -0.136326 
59 1 0.3 0.3 0.4 -1.12521 0.93476 -2.16543 
63 1 0.4 0.4 0.4 5.35845 1.87948 2.06669 
64 1 0.1 0 0.5 0.881 0.494587 -2.37644 
65 1 0 0.1 0.5 -1.88835 -2.05012 2.93891 
67 1 0.2 0.1 0.5 4.75515 -1.71811 -0.502077 
69 1 0.1 0.2 0.5 4.12743 -1.83742 3.41878 
76 1 0 0 0.6 -2.32896 3.13463 -2.48543 
77 1 0.1 0.1 0.6 -0.968333 0.451816 -0.48562 
78 1 0.1 0 0.7 3.45052 -1.00227 3.95377 
79 1 0 0.1 0.7 4.8573 0.617139 -0.618679 
80 1 0.2 0 0.6 2.39157 3.09706 -1.10996 
83 1 0.2 0.1 0.7 0.0468694 3.12184 0.550034 
86 1 0 0.2 0.6 -1.03104 -0.599845 -0.530337 
88 1 0.1 0.2 0.7 1.18266 -0.0863269 -2.21119 
90 1 0.2 0.2 0.6 0.36616 1.02145 -0.428355 
66 1 0.3 0 0.5 4.29239 3.29251 1.24542 
68 1 0.4 0.1 0.5 -1.4662 -0.357471 0.0929454 
71 1 0.3 0.2 0.5 -0.657016 -5.59679 1.45029 
81 1 0.3 0.1 0.6 0.225217 1.44748 -0.519231 
82 1 0.3 0 0.7 -2.14025 -3.45234 -0.0954945 
84 1 0.4 0 0.6 -0.619063 1.25071 0.28425 
85 1 0.4 0.1 0.7 2.1817 -0.431487 -2.31262 
92 1 0.3 0.2 0.7 0.987574 -3.91339 1.33087 
94 1 0.4 0.2 0.6 -1.50652 -1.06613 2.36003 
70 1 0 0.3 0.5 1.40845 1.922 -4.3166 
72 1 0.2 0.3 0.5 1.58676 -0.642389 -0.508951 
74 1 0.1 0.4 0.5 -1.70593 -3.88297 0.178906 
87 1 0.1 0.3 0.6 -3.30961 0.725514 0.908113 
89 1 0 0.3 0.7 1.48325 -0.0103939 0.405095 
93 1 0.2 0.3 0.7 -1.88514 -1.91507 -2.74114 
96 1 0 0.4 0.6 0.458891 -3.28118 -0.231271 
97 1 0.1 0.4 0.7 1.32311 1.1027 -3.45928 
98 1 0.2 0.4 0.6 3.10302 -5.16931 -1.88789 
73 1 0.4 0.3 0.5 -0.50718 0.895518 -5.06006 
75 1 0.3 0.4 0.5 0.00156196 0.650059 -1.42763 
91 1 0.3 0.3 0.6 -2.28503 1.57998 3.27425 
95 1 0.4 0.3 0.7 1.29851 -2.73317 4.95922 
99 1 0.3 0.4 0.7 -4.14176 0.621017 -1.94033 
100 1 0.4 0.4 0.6 1.08663 0.885704 -0.733215 
101 1 0 0 0.8 3.93742 1.13077 0.535619 
102 1 0.1 0.1 0.8 -1.544 1.42611 -2.53692 
103 1 0.1 0 0.9 1.98145 -0.835337 1.55127 
104 1 0 0.1 0.9 3.46307 -0.796051 0.813521 
105 1 0.2 0 0.8 2.34377 2.51016 -1.47949 
108 1 0.2 0.1 0.9 -0.0552002 0.981258 -1.28118 
111 1 0 0.2 0.8 -1.85616 0.410542 -0.843889 
113 1 0.1 0.2 0.9 2.53484 -0.435115 1.2679 
115 1 0.2 0.2 0.8 -1.60127 0.350783 0.209856 
106 1 0.3 0.1 0.8 1.63269 -2.32642 0.483248 
107 1 0.3 0 0.9 4.18562 0.20628 0.479974 
109 1 0.4 0 0.8 -2.73818 2.10114 -2.57021 
110 1 0.4 0.1 0.9 0.254303 -0.982487 1.7082 
117 1 0.3 0.2 0.9 -4.25197 3.11879 -3.86248 
119 1 0.4 0.2 0.8 -3.70038 4.78549 0.412907 
112 1 0.1 0.3 0.8 1.23929 1.30843 1.21293 
114 1 0 0.3 0.9 -1.13783 0.455549 2.43334 
118 1 0.2 0.3 0.9 -1.00278 1.07153 -1.39484 
121 1 0 0.4 0.8 -2.19072 -2.10054 -1.26222 
122 1 0.1 0.4 0.9 -0.368154 -0.713564 -3.13395 
123 1 0.2 0.4 0.8 -1.16245 -1.03026 -0.701462 
116 1 0.3 0.3 0.8 2.34502 -0.495391 1.92505 
120 1 0.4 0.3 0.9 -0.0918372 2.74785 -0.856133 
124 1 0.3 0.4 0.9 0.283511 -2.38484 -0.0704693 
125 1 0.4 0.4 0.8 0.0369963 0.0785916 2.58289 
126 1 0.1 0.5 0 -0.938539 -0.328231 2.20413 
127 1 0 0.5 0.1 0.708893 2.5821 1.8758 
129 1 0.2 0.5 0.1 1.00937 2.01496 -0.605681 
131 1 0 0.6 0 1.20043 4.39642 -4.47149 
132 1 0.1 0.7 0 0.0782993 1.57574 -1.54913 
133 1 0.1 0.6 0.1 -3.63951 -0.300227 2.49675 
134 1 0 0.7 0.1 1.1718 0.0203163 -0.998192 
135 1 0.2 0.6 0 -0.0740802 2.28262 0.725148 
138 1 0.2 0.7 0.1 0.783522 -0.443259 -0.00221268 
151 1 0.1 0.5 0.2 -1.22071 -0.818349 -2.06418 
156 1 0 0.6 0.2 -0.443618 -1.97411 1.37443 
157 1 0.1 0.7 0.2 1.39712 -3.43226 0.703229 
160 1 0.2 0.6 0.2 -5.82692 -1.1452 0.161906 
128 1 0.3 0.5 0 -1.18784 -1.10481 -0.109085 
130 1 0.4 0.5 0.1 1.6053 -1.34112 1.39573 
136 1 0.3 0.7 0 1.85352 -1.30125 2.58758 
137 1 0.3 0.6 0.1 -0.1013 -1.0211 -0.309368 
139 1 0.4 0.6 0 4.10253 1.65422 -0.544082 
140 1 0.4 0.7 0.1 0.781179 -0.770462 -0.448334 
153 1 0.3 0.5 0.2 -2.53395 -1.28535 -2.45874 
161 1 0.3 0.7 0.2 -2.12652 1.14507 0.300074 
164 1 0.4 0.6 0.2 0.363994 -1.18391 -0.0567693 
141 1 0 0.8 0 2.33854 -1.16448 0.492722 
142 1 0.1 0.9 0 2.78764 -1.77567 0.146384 
143 1 0.1 0.8 0.1 4.3308 0.608848 6.15673 
144 1 0 0.9 0.1 -3.35296 0.989838 -1.07022 
145 1 0.2 0.8 0 -1.2249 -0.363901 -0.672413 
148 1 0.2 0.9 0.1 0.773602 2.25778 -1.07517 
166 1 0 0.8 0.2 2.05138 3.66346 -1.22756 
167 1 0.1 0.9 0.2 -0.62411 -1.45575 0.579848 
170 1 0.2 0.8 0.2 -2.35098 2.4064 2.18671 
146 1 0.3 0.9 0 1.58775 0.877372 -0.582145 
147 1 0.3 0.8 0.1 0.303526 -0.686653 -2.18652 
149 1 0.4 0.8 0 2.15588 1.02152 0.900165 
150 1 0.4 0.9 0.1 1.04526 1.49772 -0.375654 
171 1 0.3 0.9 0.2 1.6775 4.75985 1.72335 
174 1 0.4 0.8 0.2 0.783579 -3.26839 -0.264271 
152 1 0 0.5 0.3 1.76168 0.403956 0.307952 
154 1 0.2 0.5 0.3 1.39595 -1.32705 -1.19755 
158 1 0.1 0.6 0.3 0.885058 -3.39665 -0.53889 
159 1 0 0.7 0.3 -1.62067 -0.265208 1.22645 
163 1 0.2 0.7 0.3 2.72549 -0.302436 -4.85338 
176 1 0.1 0.5 0.4 -0.0899151 -2.76839 1.67424 
178 1 0 0.6 0.4 1.20958 -0.0445892 0.0672794 
179 1 0.1 0.7 0.4 1.23403 -1.58977 -1.28864 
180 1 0.2 0.6 0.4 -0.621887 -0.670564 -1.45816 
155 1 0.4 0.5 0.3 -0.823243 -1.03267 3.0889 
162 1 0.3 0.6 0.3 -2.17876 0.317826 0.893815 
165 1 0.4 0.7 0.3 -1.43841 -5.35352 0.798865 
177 1 0.3 0.5 0.4 0.33208 -2.11714 2.63222 
181 1 0.3 0.7 0.4 -2.33289 2.6132 2.29488 
182 1 0.4 0.6 0.4 -1.55647 0.308369 -1.40608 
168 1 0.1 0.8 0.3 -1.72007 0.368598 -0.0805234 
169 1 0 0.9 0.3 -1.36096 -1.85018 -2.2792 
173 1 0.2 0.9 0.3 -3.31894 1.79582 -0.157043 
183 1 0 0.8 0.4 0.0659194 4.01495 -2.61303 
184 1 0.1 0.9 0.4 -3.81606 0.563841 -1.72249 
185 1 0.2 0.8 0.4 0.723163 -2.89449 0.122715 
172 1 0.3 0.8 0.3 -0.287661 -0.795593 0.48363 
175 1 0.4 0.9 0.3 -2.52062 -0.455489 1.86989 
186 1 0.3 0.9 0.4 3.55671 0.617217 1.28583 
187 1 0.4 0.8 0.4 1.35697 1.74784 1.1137 
188 1 0 0.5 0.5 -0.905805 -0.475756 -2.82163 
189 1 0.2 0.5 0.5 1.91145 -2.36385 0.401755 
191 1 0.1 0.6 0.5 2.5723 -3.66246 -1.6603 
192 1 0 0.7 0.5 -1.03277 -0.207495 -0.472464 
194 1 0.2 0.7 0.5 -3.47257 -4.37163 -1.34131 
201 1 0.1 0.5 0.6 3.46243 -1.44583 2.37939 
202 1 0 0.5 0.7 -0.00713563 0.706075 4.12791 
204 1 0.2 0.5 0.7 -1.07369 0.833089 -0.912075 
206 1 0 0.6 0.6 -0.275319 -1.10424 2.10054 
207 1 0.1 0.7 0.6 2.9836 0.758285 3.17413 
208 1 0.1 0.6 0.7 0.69993 0.440204 2.19825 
209 1 0 0.7 0.7 -0.0116893 1.01304 -1.52402 
210 1 0.2 0.6 0.6 -2.65883 -0.662903 1.98341 
213 1 0.2 0.7 0.7 -4.09802 -2.50195 0.709708 
190 1 0.4 0.5 0.5 3.45413 -0.591791 1.08979 
193 1 0.3 0.6 0.5 1.93819 -5.063 3.15871 
195 1 0.4 0.7 0.5 -0.738363 0.429178 -0.827009 
203 1 0.3 0.5 0.6 1.31216 1.14171 2.33127 
205 1 0.4 0.5 0.7 -1.00761 -0.691006 -1.72114 
211 1 0.3 0.7 0.6 -0.600996 -0.87951 -0.260114 
212 1 0.3 0.6 0.7 -0.623997 1.59124 -0.843452 
214 1 0.4 0.6 0.6 0.961644 2.25754 -2.62427 
215 1 0.4 0.7 0.7 1.45698 -2.6527 1.73101 
196 1 0.1 0.8 0.5 -2.67704 -2.74025 2.97553 
197 1 0 0.9 0.5 1.34862 -2.85018 -0.998414 
199 1 0.2 0.9 0.5 -2.4196 -1.21924 0.697413 
216 1 0 0.8 0.6 -0.773098 -1.74475 -3.97983 
217 1 0.1 0.9 0.6 -0.438926 -3.19367 -0.343444 
218 1 0.1 0.8 0.7 0.670022 1.46967 1.97284 
219 1 0 0.9 0.7 -2.21829 1.13595 1.20119 
220 1 0.2 0.8 0.6 -1.73769 -2.2119 1.22653 
223 1 0.2 0.9 0.7 -1.69245 -0.875843 -2.48984 
198 1 0.3 0.8 0.5 0.563462 -0.138573 1.29036 
200 1 0.4 0.9 0.5 0.547379 -0.0692748 0.157648 
221 1 0.3 0.9 0.6 -2.76739 -0.50966 0.99326 
222 1 0.3 0.8 0.7 0.347773 0.204518 -1.40243 
224 1 0.4 0.8 0.6 3.01621 -0.309454 1.78225 
225 1 0.4 0.9 0.7 1.26834 -0.213093 1.59173 
226 1 0.1 0.5 0.8 0.11276 0.706043 -0.0901473 
227 1 0 0.5 0.9 -0.403299 -1.87677 -0.449548 
229 1 0.2 0.5 0.9 -0.452658 -2.02085 2.00454 
231 1 0 0.6 0.8 1.15184 0.334444 4.1446 
232 1 0.1 0.7 0.8 -2.3921 -1.40032 1.43807 
233 1 0.1 0.6 0.9 -2.82855 2.81049 -3.77425 
234 1 0 0.7 0.9 0.137389 0.370258 -2.97222 
235 1 0.2 0.6 0.8 2.14056 1.85567 1.02056 
238 1 0.2 0.7 0.9 1.28178 1.55843 -3.22291 
228 1 0.3 0.5 0.8 4.09097 -3.44261 1.37507 
230 1 0.4 0.5 0.9 1.92769 -6.53398 -1.60323 
236 1 0.3 0.7 0.8 -3.08136 -2.01925 -5.50559 
237 1 0.3 0.6 0.9 -1.32486 -0.45821 -0.463566 
239 1 0.4 0.6 0.8 -4.07341 -5.32631 0.395662 
240 1 0.4 0.7 0.9 -2.18362 -1.75253 0.145912 
241 1 0 0.8 0.8 -0.56514 -1.01387 -0.275621 
242 1 0.1 0.9 0.8 -2.88175 -0.0405567 -1.04219 
243 1 0.1 0.8 0.9 0.103255 0.709216 2.18135 
244 1 0 0.9 0.9 3.41097 0.532761 -0.2245 
245 1 0.2 0.8 0.8 -1.39091 -0.701224 -1.65873 
248 1 0.2 0.9 0.9 0.0745367 0.990127 -0.64006 
246 1 0.3 0.9 0.8 -4.32497 1.31274 -0.385903 
247 1 0.3 0.8 0.9 1.99565 1.24034 -2.98271 
249 1 0.4 0.8 0.8 -1.83903 0.952964 -0.338848 
250 1 0.4 0.9 0.9 -0.833555 -1.1998 -1.19257 
251 1 0.5 0.1 0 -1.7532 0.719666 1.72005 
252 1 0.5 0 0.1 -0.37806 0.680342 2.49036 
253 1 0.6 0 0 3.09516 -2.01209 -2.3831 
254 1 0.7 0.1 0 2.58777 2.00063 0.62775 
255 1 0.7 0 0.1 2.3831 0.0786123 -5.51797 
256 1 0.6 0.1 0.1 -2.64073 -1.5438 -0.843753 
262 1 0.5 0.2 0.1 -0.263563 -2.57396 1.31636 
263 1 0.6 0.2 0 1.1542 0.763907 -2.06515 
265 1 0.7 0.2 0.1 1.10343 -4.71106 -3.61602 
276 1 0.5 0.1 0.2 -0.131218 -1.63715 -2.20523 
278 1 0.6 0 0.2 -1.34718 1.01181 -0.278932 
279 1 0.7 0.1 0.2 -1.54769 2.85104 1.42054 
288 1 0.6 0.2 0.2 1.03792 -0.0231883 -2.38748 
257 1 0.8 0 0 -0.517934 -0.928011 3.1253 
258 1 0.9 0.1 0 0.662571 -0.596843 -1.30306 
259 1 0.9 0 0.1 1.50718 -1.469 0.743883 
260 1 0.8 0.1 0.1 0.719272 1.39413 3.52704 
267 1 0.8 0.2 0 -0.874752 3.32054 -2.03708 
269 1 0.9 0.2 0.1 2.45432 1.74396 -1.28802 
282 1 0.8 0 0.2 -1.57679 0.744837 -0.885938 
283 1 0.9 0.1 0.2 1.60995 2.58363 0.793417 
292 1 0.8 0.2 0.2 0.421245 -0.647111 -2.58464 
261 1 0.5 0.3 0 2.72051 -0.706384 -2.90987 
264 1 0.7 0.3 0 4.34855 2.77493 -1.55073 
266 1 0.6 0.3 0.1 -4.71792 -0.248094 2.14888 
271 1 0.5 0.4 0.1 1.66148 0.5407 -1.02094 
272 1 0.6 0.4 0 -1.98841 -1.60423 -2.6896 
273 1 0.7 0.4 0.1 -1.27042 3.0435 2.34888 
286 1 0.5 0.3 0.2 -1.70288 -1.08342 -1.11459 
289 1 0.7 0.3 0.2 -2.90702 1.25806 1.52849 
297 1 0.6 0.4 0.2 -1.27369 1.08065 -0.0602854 
268 1 0.9 0.3 0 1.62271 -0.501127 -0.250294 
270 1 0.8 0.3 0.1 0.401883 -3.80604 -3.04653 
274 1 0.8 0.4 0 -0.0650599 -4.55557 3.96983 
275 1 0.9 0.4 0.1 1.51506 2.06992 1.66145 
293 1 0.9 0.3 0.2 -3.48623 -2.53506 -0.550339 
299 1 0.8 0.4 0.2 -0.933577 0.32363 0.73238 
277 1 0.5 0 0.3 3.28571 1.31842 1.5631 
280 1 0.7 0 0.3 -1.89007 1.22313 2.77288 
281 1 0.6 0.1 0.3 -2.07407 -0.0735051 -3.44265 
287 1 0.5 0.2 0.3 2.10434 2.64521 3.66317 
290 1 0.7 0.2 0.3 -1.65407 0.977342 1.84029 
301 1 0.5 0.1 0.4 -3.31111 -2.08872 0.799298 
302 1 0.6 0 0.4 -0.413288 0.543136 2.63616 
303 1 0.7 0.1 0.4 -0.17591 3.96894 1.1109 
307 1 0.6 0.2 0.4 -0.117806 -0.935025 1.08827 
284 1 0.9 0 0.3 -1.3332 -2.26844 -0.803674 
285 1 0.8 0.1 0.3 1.37423 0.915143 3.52438 
294 1 0.9 0.2 0.3 -2.28194 -1.46461 2.68568 
304 1 0.8 0 0.4 -2.31842 0.228293 0.560213 
305 1 0.9 0.1 0.4 -1.83003 3.6688 2.33253 
309 1 0.8 0.2 0.4 -1.19424 0.0870636 2.64516 
291 1 0.6 0.3 0.3 0.489556 -1.43121 2.36098 
296 1 0.5 0.4 0.3 2.75918 -0.544948 -0.23337 
298 1 0.7 0.4 0.3 -1.54049 1.97106 -0.239045 
306 1 0.5 0.3 0.4 0.668781 -0.679145 -0.772169 
308 1 0.7 0.3 0.4 2.50987 0.0235566 -2.43908 
311 1 0.6 0.4 0.4 -0.696539 -0.387614 -0.177669 
295 1 0.8 0.3 0.3 -2.15369 2.0996 3.23127 
300 1 0.9 0.4 0.3 -0.769086 0.339177 1.98936 
310 1 0.9 0.3 0.4 4.69144 -1.28936 -2.98822 
312 1 0.8 0.4 0.4 -1.50032 0.301496 -2.33729 
313 1 0.5 0 0.5 0.00341717 -0.419608 -0.556328 
314 1 0.7 0 0.5 2.53748 1.99347 1.82947 
315 1 0.6 0.1 0.5 -1.06243 -0.374559 1.35415 
318 1 0.5 0.2 0.5 -1.56241 0.857666 -0.14389 
319 1 0.7 0.2 0.5 1.90285 0.384707 -1.95383 
326 1 0.5 0.1 0.6 0.163676 0.69268 -0.801446 
327 1 0.5 0 0.7 1.25286 -0.0782019 -1.96916 
328 1 0.6 0 0.6 -0.458814 0.944572 0.627679 
329 1 0.7 0.1 0.6 1.17376 0.991226 0.814385 
330 1 0.7 0 0.7 2.1761 -2.381 -2.82346 
331 1 0.6 0.1 0.7 -0.08403 3.93599 -2.07576 
337 1 0.5 0.2 0.7 -3.24421 -1.14751 -1.61023 
338 1 0.6 0.2 0.6 2.11738 2.36867 0.210815 
340 1 0.7 0.2 0.7 2.03842 0.173219 -2.13532 
316 1 0.9 0 0.5 -0.990488 3.35559 2.71379 
317 1 0.8 0.1 0.5 -0.91854 2.0212 -0.60318 
321 1 0.9 0.2 0.5 -1.64688 0.425011 2.83692 
332 1 0.8 0 0.6 -2.41473 1.04357 1.66689 
333 1 0.9 0.1 0.6 -0.161643 -0.634617 4.59105 
334 1 0.9 0 0.7 -0.521819 -3.55897 -0.690965 
335 1 0.8 0.1 0.7 1.03348 -1.8736 -1.12478 
342 1 0.8 0.2 0.6 -0.668036 0.315186 -1.20667 
344 1 0.9 0.2 0.7 -4.63952 -5.58085 -0.061631 
320 1 0.6 0.3 0.5 1.24966 -1.86658 1.77335 
323 1 0.5 0.4 0.5 -1.51996 -1.11753 -1.04593 
324 1 0.7 0.4 0.5 -1.80708 0.34409 0.847981 
336 1 0.5 0.3 0.6 -0.486073 -2.49025 -0.927554 
339 1 0.7 0.3 0.6 -1.57966 -1.43586 -0.228938 
341 1 0.6 0.3 0.7 0.645762 2.86698 1.75365 
346 1 0.5 0.4 0.7 -0.878835 2.12286 -0.133921 
347 1 0.6 0.4 0.6 -0.977461 0.0998818 -1.26124 
348 1 0.7 0.4 0.7 1.93616 -1.72 -1.16536 
322 1 0.8 0.3 0.5 2.33394 0.695721 1.7381 
325 1 0.9 0.4 0.5 1.4511 0.650843 0.0633974 
343 1 0.9 0.3 0.6 1.45855 -2.4959 -1.48256 
345 1 0.8 0.3 0.7 3.519 -1.71371 -0.920835 
349 1 0.8 0.4 0.6 0.788135 2.74791 -0.780201 
350 1 0.9 0.4 0.7 -1.92408 2.4958 0.924317 
351 1 0.5 0.1 0.8 -0.40661 -0.970273 -3.45643 
352 1 0.5 0 0.9 -1.66878 0.891183 -4.77087 
353 1 0.6 0 0.8 -0.710819 0.123658 -0.497541 
354 1 0.7 0.1 0.8 2.11717 2.07325 -1.23566 
355 1 0.7 0 0.9 -1.10101 -3.49095 -3.1954 
356 1 0.6 0.1 0.9 -0.287844 -0.635786 -3.91969 
362 1 0.5 0.2 0.9 2.78202 -1.39906 0.879565 
363 1 0.6 0.2 0.8 -1.34028 -0.0477948 1.01199 
365 1 0.7 0.2 0.9 -4.52697 2.35732 -0.675797 
357 1 0.8 0 0.8 0.130361 1.73842 1.09526 
358 1 0.9 0.1 0.8 -0.615368 -2.64757 1.55374 
359 1 0.9 0 0.9 0.0309164 0.0651731 -0.939314 
360 1 0.8 0.1 0.9 -0.144107 -2.18824 -2.79422 
367 1 0.8 0.2 0.8 1.92357 -4.48592 0.336142 
369 1 0.9 0.2 0.9 -1.54026 2.43751 -0.26404 
361 1 0.5 0.3 0.8 -0.144623 0.455545 0.0890459 
364 1 0.7 0.3 0.8 -1.16879 0.745604 -2.24241 
366 1 0.6 0.3 0.9 3.93476 1.67191 3.21076 
371 1 0.5 0.4 0.9 0.055195 -2.92582 -1.12063 
372 1 0.6 0.4 0.8 -2.09687 1.76043 0.626216 
373 1 0.7 0.4 0.9 -0.880328 0.816891 -1.04105 
368 1 0.9 0.3 0.8 -1.37425 -0.872903 -0.147223 
370 1 0.8 0.3 0.9 0.693944 -0.0440969 -0.133681 
374 1 0.8 0.4 0.8 1.09551 -2.77904 0.375446 
375 1 0.9 0.4 0.9 0.0600728 -0.925683 -1.24392 
376 1 0.5 0.5 0 -1.03468 3.7467 5.0829 
377 1 0.7 0.5 0 0.538721 0.151192 -0.0623389 
378 1 0.6 0.5 0.1 -0.799556 -0.127322 -0.400574 
381 1 0.5 0.7 0 -3.78231 1.94076 -0.157696 
382 1 0.5 0.6 0.1 -3.21245 3.42462 -1.26543 
383 1 0.6 0.6 0 0.715477 0.162783 0.114751 
384 1 0.7 0.7 0 -0.0665737 -1.75092 1.66808 
385 1 0.7 0.6 0.1 0.176609 -0.833325 -1.16617 
386 1 0.6 0.7 0.1 -3.13671 0.934694 -5.14069 
401 1 0.5 0.5 0.2 2.02619 -0.209744 3.99676 
402 1 0.7 0.5 0.2 -1.80812 -0.725964 2.91938 
406 1 0.5 0.7 0.2 0.0450312 -0.559039 0.915894 
408 1 0.6 0.6 0.2 1.05096 -0.116933 0.112946 
409 1 0.7 0.7 0.2 0.713773 -0.52269 -0.572931 
379 1 0.9 0.5 0 0.825136 0.149321 -1.5676 
380 1 0.8 0.5 0.1 1.67798 -1.11939 -3.1509 
387 1 0.8 0.6 0 -3.54477 -1.3972 -4.20589 
388 1 0.9 0.7 0 1.33422 -1.0773 -0.875705 
389 1 0.9 0.6 0.1 -1.77362 1.92398 1.28108 
390 1 0.8 0.7 0.1 0.861302 0.110572 -0.997658 
404 1 0.9 0.5 0.2 1.11836 -2.26944 -1.86545 
412 1 0.8 0.6 0.2 0.772399 1.62034 -0.676213 
413 1 0.9 0.7 0.2 1.21494 -0.179649 3.22322 
391 1 0.5 0.9 0 -2.66966 2.04722 -0.542572 
392 1 0.5 0.8 0.1 0.693337 -1.45406 4.94285 
393 1 0.6 0.8 0 -1.45043 0.582306 0.13116 
394 1 0.7 0.9 0 -0.913158 3.59466 3.45664 
395 1 0.7 0.8 0.1 4.02518 1.64752 1.15431 
396 1 0.6 0.9 0.1 -0.540444 1.62701 -0.452401 
416 1 0.5 0.9 0.2 3.55501 0.555901 3.37398 
418 1 0.6 0.8 0.2 -0.448563 -3.71246 -0.96009 
419 1 0.7 0.9 0.2 -0.934854 -1.73576 -0.155251 
397 1 0.8 0.8 0 -0.239747 0.58939 -2.27644 
398 1 0.9 0.9 0 -0.910892 -2.07312 -2.21209 
399 1 0.9 0.8 0.1 -2.69426 1.25987 2.26358 
400 1 0.8 0.9 0.1 -0.610261 1.41021 -1.21779 
422 1 0.8 0.8 0.2 -1.93824 0.242598 -0.633153 
423 1 0.9 0.9 0.2 2.25153 1.63758 0.225632 
403 1 0.6 0.5 0.3 0.830304 1.72499 -1.40214 
407 1 0.5 0.6 0.3 -1.56723 -3.77998 0.203768 
410 1 0.7 0.6 0.3 3.19205 2.05071 1.6819 
411 1 0.6 0.7 0.3 -2.30583 2.89885 0.951555 
426 1 0.5 0.5 0.4 -0.930541 3.96093 -0.0145661 
427 1 0.7 0.5 0.4 -1.79284 -0.862388 0.192363 
429 1 0.5 0.7 0.4 -3.63156 -1.7234 -1.92319 
430 1 0.6 0.6 0.4 -0.267706 2.27746 -0.580228 
431 1 0.7 0.7 0.4 1.41188 3.17353 -2.33665 
405 1 0.8 0.5 0.3 -0.48279 2.69883 -0.391154 
414 1 0.9 0.6 0.3 2.89978 -0.545775 3.28312 
415 1 0.8 0.7 0.3 -1.24715 -0.102522 2.58361 
428 1 0.9 0.5 0.4 0.74355 4.79956 -4.80877 
432 1 0.8 0.6 0.4 1.85616 2.33992 -1.38562 
433 1 0.9 0.7 0.4 -0.322325 1.43012 2.7563 
417 1 0.5 0.8 0.3 -0.16073 -2.76502 -3.62719 
420 1 0.7 0.8 0.3 1.59251 -0.0755079 2.99717 
421 1 0.6 0.9 0.3 0.418186 1.7587 2.22773 
434 1 0.5 0.9 0.4 1.37893 2.24298 -0.156642 
435 1 0.6 0.8 0.4 0.689755 2.30515 5.25172 
436 1 0.7 0.9 0.4 -2.64802 2.61804 0.894778 
424 1 0.9 0.8 0.3 -1.1264 -1.09821 2.32515 
425 1 0.8 0.9 0.3 2.15927 -1.33295 0.771377 
437 1 0.8 0.8 0.4 0.579233 0.707364 0.65637 
438 1 0.9 0.9 0.4 1.31492 2.02754 -2.62415 
439 1 0.6 0.5 0.5 -2.17227 0.764437 0.189161 
441 1 0.5 0.6 0.5 0.747008 1.93538 0.843141 
442 1 0.7 0.6 0.5 0.27911 2.24259 2.45115 
443 1 0.6 0.7 0.5 -0.517218 2.34911 0.27816 
451 1 0.5 0.5 0.6 3.01926 0.523796 1.83843 
452 1 0.7 0.5 0.6 -2.88301 1.46495 -3.36616 
453 1 0.6 0.5 0.7 -1.5235 2.92029 0.28991 
456 1 0.5 0.7 0.6 -0.341502 4.1889 0.716856 
457 1 0.5 0.6 0.7 0.999165 0.572044 -2.43551 
458 1 0.6 0.6 0.6 0.990971 -1.31156 1.92369 
459 1 0.7 0.7 0.6 4.41821 -0.303301 -3.95583 
460 1 0.7 0.6 0.7 1.3254 0.147926 4.04785 
461 1 0.6 0.7 0.7 0.066178 -2.85494 -0.00455292 
440 1 0.8 0.5 0.5 -0.822958 0.496093 0.675439 
444 1 0.9 0.6 0.5 -2.34236 2.3971 2.12229 
445 1 0.8 0.7 0.5 0.599835 -0.546633 -3.54381 
454 1 0.9 0.5 0.6 1.18783 3.76226 -0.450516 
455 1 0.8 0.5 0.7 1.74202 1.17184 -0.446579 
462 1 0.8 0.6 0.6 -2.47348 -0.584071 -2.16721 
463 1 0.9 0.7 0.6 -0.474165 -1.65973 -2.63411 
464 1 0.9 0.6 0.7 0.917658 -0.655945 2.10304 
465 1 0.8 0.7 0.7 -1.57212 -0.177556 -2.64559 
446 1 0.5 0.8 0.5 2.32712 -0.985831 -1.61184 
447 1 0.7 0.8 0.5 -0.804795 0.215925 -1.5587 
448 1 0.6 0.9 0.5 0.626649 -0.368227 -0.853102 
466 1 0.5 0.9 0.6 2.96294 1.12763 -0.244157 
467 1 0.5 0.8 0.7 -1.81159 -2.19908 1.39202 
468 1 0.6 0.8 0.6 2.41936 0.842186 -3.72062 
469 1 0.7 0.9 0.6 1.51028 1.68791 -0.446416 
470 1 0.7 0.8 0.7 -0.0114225 0.0683568 -4.15355 
471 1 0.6 0.9 0.7 -0.664369 -0.617194 -0.0133709 
449 1 0.9 0.8 0.5 1.32197 -1.19519 3.58236 
450 1 0.8 0.9 0.5 -0.676028 -2.71133 3.11158 
472 1 0.8 0.8 0.6 -2.97972 3.30769 -0.162672 
473 1 0.9 0.9 0.6 -5.13914 2.04404 -1.3558 
474 1 0.9 0.8 0.7 -2.39344 2.28052 -0.175304 
475 1 0.8 0.9 0.7 1.43379 2.2656 -1.13514 
476 1 0.5 0.5 0.8 2.71315 1.23796 0.31946 
477 1 0.7 0.5 0.8 -2.73152 -1.37205 -2.90142 
478 1 0.6 0.5 0.9 1.03603 5.35663 -2.76003 
481 1 0.5 0.7 0.8 0.319752 1.19735 -1.64533 
482 1 0.5 0.6 0.9 -1.19893 -1.63413 -0.384052 
483 1 0.6 0.6 0.8 0.314046 -3.70241 -2.23384 
484 1 0.7 0.7 0.8 1.65395 0.821633 3.66505 
485 1 0.7 0.6 0.9 -2.53862 -3.05914 1.50602 
486 1 0.6 0.7 0.9 -1.97824 -2.30747 -1.61352 
479 1 0.9 0.5 0.8 -1.87214 -2.00105 0.388225 
480 1 0.8 0.5 0.9 -1.56193 2.85023 -3.35075 
487 1 0.8 0.6 0.8 -1.46838 1.22631 -0.403507 
488 1 0.9 0.7 0.8 3.14928 -5.12702 -3.70632 
489 1 0.9 0.6 0.9 0.418647 2.11762 -0.64564 
490 1 0.8 0.7 0.9 -0.333006 -3.52822 -0.147588 
491 1 0.5 0.9 0.8 -2.0879 -1.48425 -1.64134 
492 1 0.5 0.8 0.9 -1.7417 1.09271 -1.18761 
493 1 0.6 0.8 0.8 -0.808195 -4.21966 4.05969 
494 1 0.7 0.9 0.8 -2.27934 0.423441 1.31757 
495 1 0.7 0.8 0.9 3.41528 0.170347 -0.3436 
496 1 0.6 0.9 0.9 0.363062 -0.856924 -0.158479 
497 1 0.8 0.8 0.8 0.490647 5.17208 -1.83953 
498 1 0.9 0.9 0.8 -0.448607 0.271103 2.62847 
499 1 0.9 0.8 0.9 0.51357 1.75104 1.82106 
500 1 0.8 0.9 0.9 -0.499284 -2.52249 2.57412 
